V -t * -v 1.0a5 -a 0
A -t * -n 1 -p 0 -o 0x7fffffff -c 30 -a 1
A -t * -h 1 -m 1073741823 -s 0
c -t * -i 1 -n Blue
c -t * -i 2 -n Red
c -t * -i 3 -n Green
n -t * -a 4 -s 4 -S UP -v circle -c black -i black
n -t * -a 0 -s 0 -S UP -v circle -c black -i black
n -t * -a 1 -s 1 -S UP -v circle -c black -i black
n -t * -a 2 -s 2 -S UP -v circle -c black -i black
n -t * -a 3 -s 3 -S UP -v circle -c black -i black
l -t * -s 0 -d 1 -S UP -r 2000000 -D 0.01 -c black -o right
l -t * -s 1 -d 2 -S UP -r 2000000 -D 0.01 -c black -o down
l -t * -s 2 -d 3 -S UP -r 2000000 -D 0.01 -c black -o left
l -t * -s 3 -d 4 -S UP -r 2000000 -D 0.01 -c black -o left-up
l -t * -s 4 -d 0 -S UP -r 2000000 -D 0.01 -c black -o right-up
q -t * -s 3 -d 2 -a 0.5
q -t * -s 2 -d 3 -a 0.5
+ -t 0.1 -s 3 -d 2 -p cbr -e 1000 -c 2 -i 0 -a 2 -x {3.0 2.0 0 ------- null}
- -t 0.1 -s 3 -d 2 -p cbr -e 1000 -c 2 -i 0 -a 2 -x {3.0 2.0 0 ------- null}
h -t 0.1 -s 3 -d 2 -p cbr -e 1000 -c 2 -i 0 -a 2 -x {3.0 2.0 -1 ------- null}
+ -t 0.108 -s 3 -d 2 -p cbr -e 1000 -c 2 -i 1 -a 2 -x {3.0 2.0 1 ------- null}
- -t 0.108 -s 3 -d 2 -p cbr -e 1000 -c 2 -i 1 -a 2 -x {3.0 2.0 1 ------- null}
h -t 0.108 -s 3 -d 2 -p cbr -e 1000 -c 2 -i 1 -a 2 -x {3.0 2.0 -1 ------- null}
r -t 0.114 -s 3 -d 2 -p cbr -e 1000 -c 2 -i 0 -a 2 -x {3.0 2.0 0 ------- null}
+ -t 0.116 -s 3 -d 2 -p cbr -e 1000 -c 2 -i 2 -a 2 -x {3.0 2.0 2 ------- null}
- -t 0.116 -s 3 -d 2 -p cbr -e 1000 -c 2 -i 2 -a 2 -x {3.0 2.0 2 ------- null}
h -t 0.116 -s 3 -d 2 -p cbr -e 1000 -c 2 -i 2 -a 2 -x {3.0 2.0 -1 ------- null}
r -t 0.122 -s 3 -d 2 -p cbr -e 1000 -c 2 -i 1 -a 2 -x {3.0 2.0 1 ------- null}
+ -t 0.124 -s 3 -d 2 -p cbr -e 1000 -c 2 -i 3 -a 2 -x {3.0 2.0 3 ------- null}
- -t 0.124 -s 3 -d 2 -p cbr -e 1000 -c 2 -i 3 -a 2 -x {3.0 2.0 3 ------- null}
h -t 0.124 -s 3 -d 2 -p cbr -e 1000 -c 2 -i 3 -a 2 -x {3.0 2.0 -1 ------- null}
r -t 0.13 -s 3 -d 2 -p cbr -e 1000 -c 2 -i 2 -a 2 -x {3.0 2.0 2 ------- null}
+ -t 0.132 -s 3 -d 2 -p cbr -e 1000 -c 2 -i 4 -a 2 -x {3.0 2.0 4 ------- null}
- -t 0.132 -s 3 -d 2 -p cbr -e 1000 -c 2 -i 4 -a 2 -x {3.0 2.0 4 ------- null}
h -t 0.132 -s 3 -d 2 -p cbr -e 1000 -c 2 -i 4 -a 2 -x {3.0 2.0 -1 ------- null}
r -t 0.138 -s 3 -d 2 -p cbr -e 1000 -c 2 -i 3 -a 2 -x {3.0 2.0 3 ------- null}
+ -t 0.14 -s 3 -d 2 -p cbr -e 1000 -c 2 -i 5 -a 2 -x {3.0 2.0 5 ------- null}
- -t 0.14 -s 3 -d 2 -p cbr -e 1000 -c 2 -i 5 -a 2 -x {3.0 2.0 5 ------- null}
h -t 0.14 -s 3 -d 2 -p cbr -e 1000 -c 2 -i 5 -a 2 -x {3.0 2.0 -1 ------- null}
r -t 0.146 -s 3 -d 2 -p cbr -e 1000 -c 2 -i 4 -a 2 -x {3.0 2.0 4 ------- null}
+ -t 0.148 -s 3 -d 2 -p cbr -e 1000 -c 2 -i 6 -a 2 -x {3.0 2.0 6 ------- null}
- -t 0.148 -s 3 -d 2 -p cbr -e 1000 -c 2 -i 6 -a 2 -x {3.0 2.0 6 ------- null}
h -t 0.148 -s 3 -d 2 -p cbr -e 1000 -c 2 -i 6 -a 2 -x {3.0 2.0 -1 ------- null}
r -t 0.154 -s 3 -d 2 -p cbr -e 1000 -c 2 -i 5 -a 2 -x {3.0 2.0 5 ------- null}
+ -t 0.156 -s 3 -d 2 -p cbr -e 1000 -c 2 -i 7 -a 2 -x {3.0 2.0 7 ------- null}
- -t 0.156 -s 3 -d 2 -p cbr -e 1000 -c 2 -i 7 -a 2 -x {3.0 2.0 7 ------- null}
h -t 0.156 -s 3 -d 2 -p cbr -e 1000 -c 2 -i 7 -a 2 -x {3.0 2.0 -1 ------- null}
r -t 0.162 -s 3 -d 2 -p cbr -e 1000 -c 2 -i 6 -a 2 -x {3.0 2.0 6 ------- null}
+ -t 0.164 -s 3 -d 2 -p cbr -e 1000 -c 2 -i 8 -a 2 -x {3.0 2.0 8 ------- null}
- -t 0.164 -s 3 -d 2 -p cbr -e 1000 -c 2 -i 8 -a 2 -x {3.0 2.0 8 ------- null}
h -t 0.164 -s 3 -d 2 -p cbr -e 1000 -c 2 -i 8 -a 2 -x {3.0 2.0 -1 ------- null}
r -t 0.17 -s 3 -d 2 -p cbr -e 1000 -c 2 -i 7 -a 2 -x {3.0 2.0 7 ------- null}
+ -t 0.172 -s 3 -d 2 -p cbr -e 1000 -c 2 -i 9 -a 2 -x {3.0 2.0 9 ------- null}
- -t 0.172 -s 3 -d 2 -p cbr -e 1000 -c 2 -i 9 -a 2 -x {3.0 2.0 9 ------- null}
h -t 0.172 -s 3 -d 2 -p cbr -e 1000 -c 2 -i 9 -a 2 -x {3.0 2.0 -1 ------- null}
r -t 0.178 -s 3 -d 2 -p cbr -e 1000 -c 2 -i 8 -a 2 -x {3.0 2.0 8 ------- null}
+ -t 0.18 -s 3 -d 2 -p cbr -e 1000 -c 2 -i 10 -a 2 -x {3.0 2.0 10 ------- null}
- -t 0.18 -s 3 -d 2 -p cbr -e 1000 -c 2 -i 10 -a 2 -x {3.0 2.0 10 ------- null}
h -t 0.18 -s 3 -d 2 -p cbr -e 1000 -c 2 -i 10 -a 2 -x {3.0 2.0 -1 ------- null}
r -t 0.186 -s 3 -d 2 -p cbr -e 1000 -c 2 -i 9 -a 2 -x {3.0 2.0 9 ------- null}
+ -t 0.188 -s 3 -d 2 -p cbr -e 1000 -c 2 -i 11 -a 2 -x {3.0 2.0 11 ------- null}
- -t 0.188 -s 3 -d 2 -p cbr -e 1000 -c 2 -i 11 -a 2 -x {3.0 2.0 11 ------- null}
h -t 0.188 -s 3 -d 2 -p cbr -e 1000 -c 2 -i 11 -a 2 -x {3.0 2.0 -1 ------- null}
r -t 0.194 -s 3 -d 2 -p cbr -e 1000 -c 2 -i 10 -a 2 -x {3.0 2.0 10 ------- null}
+ -t 0.196 -s 3 -d 2 -p cbr -e 1000 -c 2 -i 12 -a 2 -x {3.0 2.0 12 ------- null}
- -t 0.196 -s 3 -d 2 -p cbr -e 1000 -c 2 -i 12 -a 2 -x {3.0 2.0 12 ------- null}
h -t 0.196 -s 3 -d 2 -p cbr -e 1000 -c 2 -i 12 -a 2 -x {3.0 2.0 -1 ------- null}
r -t 0.202 -s 3 -d 2 -p cbr -e 1000 -c 2 -i 11 -a 2 -x {3.0 2.0 11 ------- null}
+ -t 0.204 -s 3 -d 2 -p cbr -e 1000 -c 2 -i 13 -a 2 -x {3.0 2.0 13 ------- null}
- -t 0.204 -s 3 -d 2 -p cbr -e 1000 -c 2 -i 13 -a 2 -x {3.0 2.0 13 ------- null}
h -t 0.204 -s 3 -d 2 -p cbr -e 1000 -c 2 -i 13 -a 2 -x {3.0 2.0 -1 ------- null}
r -t 0.21 -s 3 -d 2 -p cbr -e 1000 -c 2 -i 12 -a 2 -x {3.0 2.0 12 ------- null}
+ -t 0.212 -s 3 -d 2 -p cbr -e 1000 -c 2 -i 14 -a 2 -x {3.0 2.0 14 ------- null}
- -t 0.212 -s 3 -d 2 -p cbr -e 1000 -c 2 -i 14 -a 2 -x {3.0 2.0 14 ------- null}
h -t 0.212 -s 3 -d 2 -p cbr -e 1000 -c 2 -i 14 -a 2 -x {3.0 2.0 -1 ------- null}
r -t 0.218 -s 3 -d 2 -p cbr -e 1000 -c 2 -i 13 -a 2 -x {3.0 2.0 13 ------- null}
+ -t 0.22 -s 3 -d 2 -p cbr -e 1000 -c 2 -i 15 -a 2 -x {3.0 2.0 15 ------- null}
- -t 0.22 -s 3 -d 2 -p cbr -e 1000 -c 2 -i 15 -a 2 -x {3.0 2.0 15 ------- null}
h -t 0.22 -s 3 -d 2 -p cbr -e 1000 -c 2 -i 15 -a 2 -x {3.0 2.0 -1 ------- null}
r -t 0.226 -s 3 -d 2 -p cbr -e 1000 -c 2 -i 14 -a 2 -x {3.0 2.0 14 ------- null}
+ -t 0.228 -s 3 -d 2 -p cbr -e 1000 -c 2 -i 16 -a 2 -x {3.0 2.0 16 ------- null}
- -t 0.228 -s 3 -d 2 -p cbr -e 1000 -c 2 -i 16 -a 2 -x {3.0 2.0 16 ------- null}
h -t 0.228 -s 3 -d 2 -p cbr -e 1000 -c 2 -i 16 -a 2 -x {3.0 2.0 -1 ------- null}
r -t 0.234 -s 3 -d 2 -p cbr -e 1000 -c 2 -i 15 -a 2 -x {3.0 2.0 15 ------- null}
+ -t 0.236 -s 3 -d 2 -p cbr -e 1000 -c 2 -i 17 -a 2 -x {3.0 2.0 17 ------- null}
- -t 0.236 -s 3 -d 2 -p cbr -e 1000 -c 2 -i 17 -a 2 -x {3.0 2.0 17 ------- null}
h -t 0.236 -s 3 -d 2 -p cbr -e 1000 -c 2 -i 17 -a 2 -x {3.0 2.0 -1 ------- null}
r -t 0.242 -s 3 -d 2 -p cbr -e 1000 -c 2 -i 16 -a 2 -x {3.0 2.0 16 ------- null}
+ -t 0.244 -s 3 -d 2 -p cbr -e 1000 -c 2 -i 18 -a 2 -x {3.0 2.0 18 ------- null}
- -t 0.244 -s 3 -d 2 -p cbr -e 1000 -c 2 -i 18 -a 2 -x {3.0 2.0 18 ------- null}
h -t 0.244 -s 3 -d 2 -p cbr -e 1000 -c 2 -i 18 -a 2 -x {3.0 2.0 -1 ------- null}
r -t 0.25 -s 3 -d 2 -p cbr -e 1000 -c 2 -i 17 -a 2 -x {3.0 2.0 17 ------- null}
+ -t 0.252 -s 3 -d 2 -p cbr -e 1000 -c 2 -i 19 -a 2 -x {3.0 2.0 19 ------- null}
- -t 0.252 -s 3 -d 2 -p cbr -e 1000 -c 2 -i 19 -a 2 -x {3.0 2.0 19 ------- null}
h -t 0.252 -s 3 -d 2 -p cbr -e 1000 -c 2 -i 19 -a 2 -x {3.0 2.0 -1 ------- null}
r -t 0.258 -s 3 -d 2 -p cbr -e 1000 -c 2 -i 18 -a 2 -x {3.0 2.0 18 ------- null}
+ -t 0.26 -s 3 -d 2 -p cbr -e 1000 -c 2 -i 20 -a 2 -x {3.0 2.0 20 ------- null}
- -t 0.26 -s 3 -d 2 -p cbr -e 1000 -c 2 -i 20 -a 2 -x {3.0 2.0 20 ------- null}
h -t 0.26 -s 3 -d 2 -p cbr -e 1000 -c 2 -i 20 -a 2 -x {3.0 2.0 -1 ------- null}
r -t 0.266 -s 3 -d 2 -p cbr -e 1000 -c 2 -i 19 -a 2 -x {3.0 2.0 19 ------- null}
+ -t 0.268 -s 3 -d 2 -p cbr -e 1000 -c 2 -i 21 -a 2 -x {3.0 2.0 21 ------- null}
- -t 0.268 -s 3 -d 2 -p cbr -e 1000 -c 2 -i 21 -a 2 -x {3.0 2.0 21 ------- null}
h -t 0.268 -s 3 -d 2 -p cbr -e 1000 -c 2 -i 21 -a 2 -x {3.0 2.0 -1 ------- null}
r -t 0.274 -s 3 -d 2 -p cbr -e 1000 -c 2 -i 20 -a 2 -x {3.0 2.0 20 ------- null}
+ -t 0.276 -s 3 -d 2 -p cbr -e 1000 -c 2 -i 22 -a 2 -x {3.0 2.0 22 ------- null}
- -t 0.276 -s 3 -d 2 -p cbr -e 1000 -c 2 -i 22 -a 2 -x {3.0 2.0 22 ------- null}
h -t 0.276 -s 3 -d 2 -p cbr -e 1000 -c 2 -i 22 -a 2 -x {3.0 2.0 -1 ------- null}
r -t 0.282 -s 3 -d 2 -p cbr -e 1000 -c 2 -i 21 -a 2 -x {3.0 2.0 21 ------- null}
+ -t 0.284 -s 3 -d 2 -p cbr -e 1000 -c 2 -i 23 -a 2 -x {3.0 2.0 23 ------- null}
- -t 0.284 -s 3 -d 2 -p cbr -e 1000 -c 2 -i 23 -a 2 -x {3.0 2.0 23 ------- null}
h -t 0.284 -s 3 -d 2 -p cbr -e 1000 -c 2 -i 23 -a 2 -x {3.0 2.0 -1 ------- null}
r -t 0.29 -s 3 -d 2 -p cbr -e 1000 -c 2 -i 22 -a 2 -x {3.0 2.0 22 ------- null}
+ -t 0.292 -s 3 -d 2 -p cbr -e 1000 -c 2 -i 24 -a 2 -x {3.0 2.0 24 ------- null}
- -t 0.292 -s 3 -d 2 -p cbr -e 1000 -c 2 -i 24 -a 2 -x {3.0 2.0 24 ------- null}
h -t 0.292 -s 3 -d 2 -p cbr -e 1000 -c 2 -i 24 -a 2 -x {3.0 2.0 -1 ------- null}
r -t 0.298 -s 3 -d 2 -p cbr -e 1000 -c 2 -i 23 -a 2 -x {3.0 2.0 23 ------- null}
+ -t 0.3 -s 3 -d 2 -p cbr -e 1000 -c 2 -i 25 -a 2 -x {3.0 2.0 25 ------- null}
- -t 0.3 -s 3 -d 2 -p cbr -e 1000 -c 2 -i 25 -a 2 -x {3.0 2.0 25 ------- null}
h -t 0.3 -s 3 -d 2 -p cbr -e 1000 -c 2 -i 25 -a 2 -x {3.0 2.0 -1 ------- null}
r -t 0.306 -s 3 -d 2 -p cbr -e 1000 -c 2 -i 24 -a 2 -x {3.0 2.0 24 ------- null}
+ -t 0.308 -s 3 -d 2 -p cbr -e 1000 -c 2 -i 26 -a 2 -x {3.0 2.0 26 ------- null}
- -t 0.308 -s 3 -d 2 -p cbr -e 1000 -c 2 -i 26 -a 2 -x {3.0 2.0 26 ------- null}
h -t 0.308 -s 3 -d 2 -p cbr -e 1000 -c 2 -i 26 -a 2 -x {3.0 2.0 -1 ------- null}
r -t 0.314 -s 3 -d 2 -p cbr -e 1000 -c 2 -i 25 -a 2 -x {3.0 2.0 25 ------- null}
+ -t 0.316 -s 3 -d 2 -p cbr -e 1000 -c 2 -i 27 -a 2 -x {3.0 2.0 27 ------- null}
- -t 0.316 -s 3 -d 2 -p cbr -e 1000 -c 2 -i 27 -a 2 -x {3.0 2.0 27 ------- null}
h -t 0.316 -s 3 -d 2 -p cbr -e 1000 -c 2 -i 27 -a 2 -x {3.0 2.0 -1 ------- null}
r -t 0.322 -s 3 -d 2 -p cbr -e 1000 -c 2 -i 26 -a 2 -x {3.0 2.0 26 ------- null}
+ -t 0.324 -s 3 -d 2 -p cbr -e 1000 -c 2 -i 28 -a 2 -x {3.0 2.0 28 ------- null}
- -t 0.324 -s 3 -d 2 -p cbr -e 1000 -c 2 -i 28 -a 2 -x {3.0 2.0 28 ------- null}
h -t 0.324 -s 3 -d 2 -p cbr -e 1000 -c 2 -i 28 -a 2 -x {3.0 2.0 -1 ------- null}
r -t 0.33 -s 3 -d 2 -p cbr -e 1000 -c 2 -i 27 -a 2 -x {3.0 2.0 27 ------- null}
+ -t 0.332 -s 3 -d 2 -p cbr -e 1000 -c 2 -i 29 -a 2 -x {3.0 2.0 29 ------- null}
- -t 0.332 -s 3 -d 2 -p cbr -e 1000 -c 2 -i 29 -a 2 -x {3.0 2.0 29 ------- null}
h -t 0.332 -s 3 -d 2 -p cbr -e 1000 -c 2 -i 29 -a 2 -x {3.0 2.0 -1 ------- null}
r -t 0.338 -s 3 -d 2 -p cbr -e 1000 -c 2 -i 28 -a 2 -x {3.0 2.0 28 ------- null}
+ -t 0.34 -s 3 -d 2 -p cbr -e 1000 -c 2 -i 30 -a 2 -x {3.0 2.0 30 ------- null}
- -t 0.34 -s 3 -d 2 -p cbr -e 1000 -c 2 -i 30 -a 2 -x {3.0 2.0 30 ------- null}
h -t 0.34 -s 3 -d 2 -p cbr -e 1000 -c 2 -i 30 -a 2 -x {3.0 2.0 -1 ------- null}
r -t 0.346 -s 3 -d 2 -p cbr -e 1000 -c 2 -i 29 -a 2 -x {3.0 2.0 29 ------- null}
+ -t 0.348 -s 3 -d 2 -p cbr -e 1000 -c 2 -i 31 -a 2 -x {3.0 2.0 31 ------- null}
- -t 0.348 -s 3 -d 2 -p cbr -e 1000 -c 2 -i 31 -a 2 -x {3.0 2.0 31 ------- null}
h -t 0.348 -s 3 -d 2 -p cbr -e 1000 -c 2 -i 31 -a 2 -x {3.0 2.0 -1 ------- null}
r -t 0.354 -s 3 -d 2 -p cbr -e 1000 -c 2 -i 30 -a 2 -x {3.0 2.0 30 ------- null}
+ -t 0.356 -s 3 -d 2 -p cbr -e 1000 -c 2 -i 32 -a 2 -x {3.0 2.0 32 ------- null}
- -t 0.356 -s 3 -d 2 -p cbr -e 1000 -c 2 -i 32 -a 2 -x {3.0 2.0 32 ------- null}
h -t 0.356 -s 3 -d 2 -p cbr -e 1000 -c 2 -i 32 -a 2 -x {3.0 2.0 -1 ------- null}
r -t 0.362 -s 3 -d 2 -p cbr -e 1000 -c 2 -i 31 -a 2 -x {3.0 2.0 31 ------- null}
+ -t 0.364 -s 3 -d 2 -p cbr -e 1000 -c 2 -i 33 -a 2 -x {3.0 2.0 33 ------- null}
- -t 0.364 -s 3 -d 2 -p cbr -e 1000 -c 2 -i 33 -a 2 -x {3.0 2.0 33 ------- null}
h -t 0.364 -s 3 -d 2 -p cbr -e 1000 -c 2 -i 33 -a 2 -x {3.0 2.0 -1 ------- null}
r -t 0.37 -s 3 -d 2 -p cbr -e 1000 -c 2 -i 32 -a 2 -x {3.0 2.0 32 ------- null}
+ -t 0.372 -s 3 -d 2 -p cbr -e 1000 -c 2 -i 34 -a 2 -x {3.0 2.0 34 ------- null}
- -t 0.372 -s 3 -d 2 -p cbr -e 1000 -c 2 -i 34 -a 2 -x {3.0 2.0 34 ------- null}
h -t 0.372 -s 3 -d 2 -p cbr -e 1000 -c 2 -i 34 -a 2 -x {3.0 2.0 -1 ------- null}
r -t 0.378 -s 3 -d 2 -p cbr -e 1000 -c 2 -i 33 -a 2 -x {3.0 2.0 33 ------- null}
+ -t 0.38 -s 3 -d 2 -p cbr -e 1000 -c 2 -i 35 -a 2 -x {3.0 2.0 35 ------- null}
- -t 0.38 -s 3 -d 2 -p cbr -e 1000 -c 2 -i 35 -a 2 -x {3.0 2.0 35 ------- null}
h -t 0.38 -s 3 -d 2 -p cbr -e 1000 -c 2 -i 35 -a 2 -x {3.0 2.0 -1 ------- null}
r -t 0.386 -s 3 -d 2 -p cbr -e 1000 -c 2 -i 34 -a 2 -x {3.0 2.0 34 ------- null}
+ -t 0.388 -s 3 -d 2 -p cbr -e 1000 -c 2 -i 36 -a 2 -x {3.0 2.0 36 ------- null}
- -t 0.388 -s 3 -d 2 -p cbr -e 1000 -c 2 -i 36 -a 2 -x {3.0 2.0 36 ------- null}
h -t 0.388 -s 3 -d 2 -p cbr -e 1000 -c 2 -i 36 -a 2 -x {3.0 2.0 -1 ------- null}
r -t 0.394 -s 3 -d 2 -p cbr -e 1000 -c 2 -i 35 -a 2 -x {3.0 2.0 35 ------- null}
+ -t 0.396 -s 3 -d 2 -p cbr -e 1000 -c 2 -i 37 -a 2 -x {3.0 2.0 37 ------- null}
- -t 0.396 -s 3 -d 2 -p cbr -e 1000 -c 2 -i 37 -a 2 -x {3.0 2.0 37 ------- null}
h -t 0.396 -s 3 -d 2 -p cbr -e 1000 -c 2 -i 37 -a 2 -x {3.0 2.0 -1 ------- null}
r -t 0.402 -s 3 -d 2 -p cbr -e 1000 -c 2 -i 36 -a 2 -x {3.0 2.0 36 ------- null}
+ -t 0.404 -s 3 -d 2 -p cbr -e 1000 -c 2 -i 38 -a 2 -x {3.0 2.0 38 ------- null}
- -t 0.404 -s 3 -d 2 -p cbr -e 1000 -c 2 -i 38 -a 2 -x {3.0 2.0 38 ------- null}
h -t 0.404 -s 3 -d 2 -p cbr -e 1000 -c 2 -i 38 -a 2 -x {3.0 2.0 -1 ------- null}
r -t 0.41 -s 3 -d 2 -p cbr -e 1000 -c 2 -i 37 -a 2 -x {3.0 2.0 37 ------- null}
+ -t 0.412 -s 3 -d 2 -p cbr -e 1000 -c 2 -i 39 -a 2 -x {3.0 2.0 39 ------- null}
- -t 0.412 -s 3 -d 2 -p cbr -e 1000 -c 2 -i 39 -a 2 -x {3.0 2.0 39 ------- null}
h -t 0.412 -s 3 -d 2 -p cbr -e 1000 -c 2 -i 39 -a 2 -x {3.0 2.0 -1 ------- null}
r -t 0.418 -s 3 -d 2 -p cbr -e 1000 -c 2 -i 38 -a 2 -x {3.0 2.0 38 ------- null}
+ -t 0.42 -s 3 -d 2 -p cbr -e 1000 -c 2 -i 40 -a 2 -x {3.0 2.0 40 ------- null}
- -t 0.42 -s 3 -d 2 -p cbr -e 1000 -c 2 -i 40 -a 2 -x {3.0 2.0 40 ------- null}
h -t 0.42 -s 3 -d 2 -p cbr -e 1000 -c 2 -i 40 -a 2 -x {3.0 2.0 -1 ------- null}
r -t 0.426 -s 3 -d 2 -p cbr -e 1000 -c 2 -i 39 -a 2 -x {3.0 2.0 39 ------- null}
+ -t 0.428 -s 3 -d 2 -p cbr -e 1000 -c 2 -i 41 -a 2 -x {3.0 2.0 41 ------- null}
- -t 0.428 -s 3 -d 2 -p cbr -e 1000 -c 2 -i 41 -a 2 -x {3.0 2.0 41 ------- null}
h -t 0.428 -s 3 -d 2 -p cbr -e 1000 -c 2 -i 41 -a 2 -x {3.0 2.0 -1 ------- null}
r -t 0.434 -s 3 -d 2 -p cbr -e 1000 -c 2 -i 40 -a 2 -x {3.0 2.0 40 ------- null}
+ -t 0.436 -s 3 -d 2 -p cbr -e 1000 -c 2 -i 42 -a 2 -x {3.0 2.0 42 ------- null}
- -t 0.436 -s 3 -d 2 -p cbr -e 1000 -c 2 -i 42 -a 2 -x {3.0 2.0 42 ------- null}
h -t 0.436 -s 3 -d 2 -p cbr -e 1000 -c 2 -i 42 -a 2 -x {3.0 2.0 -1 ------- null}
r -t 0.442 -s 3 -d 2 -p cbr -e 1000 -c 2 -i 41 -a 2 -x {3.0 2.0 41 ------- null}
+ -t 0.444 -s 3 -d 2 -p cbr -e 1000 -c 2 -i 43 -a 2 -x {3.0 2.0 43 ------- null}
- -t 0.444 -s 3 -d 2 -p cbr -e 1000 -c 2 -i 43 -a 2 -x {3.0 2.0 43 ------- null}
h -t 0.444 -s 3 -d 2 -p cbr -e 1000 -c 2 -i 43 -a 2 -x {3.0 2.0 -1 ------- null}
r -t 0.45 -s 3 -d 2 -p cbr -e 1000 -c 2 -i 42 -a 2 -x {3.0 2.0 42 ------- null}
+ -t 0.452 -s 3 -d 2 -p cbr -e 1000 -c 2 -i 44 -a 2 -x {3.0 2.0 44 ------- null}
- -t 0.452 -s 3 -d 2 -p cbr -e 1000 -c 2 -i 44 -a 2 -x {3.0 2.0 44 ------- null}
h -t 0.452 -s 3 -d 2 -p cbr -e 1000 -c 2 -i 44 -a 2 -x {3.0 2.0 -1 ------- null}
r -t 0.458 -s 3 -d 2 -p cbr -e 1000 -c 2 -i 43 -a 2 -x {3.0 2.0 43 ------- null}
+ -t 0.46 -s 3 -d 2 -p cbr -e 1000 -c 2 -i 45 -a 2 -x {3.0 2.0 45 ------- null}
- -t 0.46 -s 3 -d 2 -p cbr -e 1000 -c 2 -i 45 -a 2 -x {3.0 2.0 45 ------- null}
h -t 0.46 -s 3 -d 2 -p cbr -e 1000 -c 2 -i 45 -a 2 -x {3.0 2.0 -1 ------- null}
r -t 0.466 -s 3 -d 2 -p cbr -e 1000 -c 2 -i 44 -a 2 -x {3.0 2.0 44 ------- null}
+ -t 0.468 -s 3 -d 2 -p cbr -e 1000 -c 2 -i 46 -a 2 -x {3.0 2.0 46 ------- null}
- -t 0.468 -s 3 -d 2 -p cbr -e 1000 -c 2 -i 46 -a 2 -x {3.0 2.0 46 ------- null}
h -t 0.468 -s 3 -d 2 -p cbr -e 1000 -c 2 -i 46 -a 2 -x {3.0 2.0 -1 ------- null}
r -t 0.474 -s 3 -d 2 -p cbr -e 1000 -c 2 -i 45 -a 2 -x {3.0 2.0 45 ------- null}
+ -t 0.476 -s 3 -d 2 -p cbr -e 1000 -c 2 -i 47 -a 2 -x {3.0 2.0 47 ------- null}
- -t 0.476 -s 3 -d 2 -p cbr -e 1000 -c 2 -i 47 -a 2 -x {3.0 2.0 47 ------- null}
h -t 0.476 -s 3 -d 2 -p cbr -e 1000 -c 2 -i 47 -a 2 -x {3.0 2.0 -1 ------- null}
r -t 0.482 -s 3 -d 2 -p cbr -e 1000 -c 2 -i 46 -a 2 -x {3.0 2.0 46 ------- null}
+ -t 0.484 -s 3 -d 2 -p cbr -e 1000 -c 2 -i 48 -a 2 -x {3.0 2.0 48 ------- null}
- -t 0.484 -s 3 -d 2 -p cbr -e 1000 -c 2 -i 48 -a 2 -x {3.0 2.0 48 ------- null}
h -t 0.484 -s 3 -d 2 -p cbr -e 1000 -c 2 -i 48 -a 2 -x {3.0 2.0 -1 ------- null}
r -t 0.49 -s 3 -d 2 -p cbr -e 1000 -c 2 -i 47 -a 2 -x {3.0 2.0 47 ------- null}
+ -t 0.492 -s 3 -d 2 -p cbr -e 1000 -c 2 -i 49 -a 2 -x {3.0 2.0 49 ------- null}
- -t 0.492 -s 3 -d 2 -p cbr -e 1000 -c 2 -i 49 -a 2 -x {3.0 2.0 49 ------- null}
h -t 0.492 -s 3 -d 2 -p cbr -e 1000 -c 2 -i 49 -a 2 -x {3.0 2.0 -1 ------- null}
r -t 0.498 -s 3 -d 2 -p cbr -e 1000 -c 2 -i 48 -a 2 -x {3.0 2.0 48 ------- null}
+ -t 0.5 -s 3 -d 2 -p cbr -e 1000 -c 2 -i 50 -a 2 -x {3.0 2.0 50 ------- null}
- -t 0.5 -s 3 -d 2 -p cbr -e 1000 -c 2 -i 50 -a 2 -x {3.0 2.0 50 ------- null}
h -t 0.5 -s 3 -d 2 -p cbr -e 1000 -c 2 -i 50 -a 2 -x {3.0 2.0 -1 ------- null}
r -t 0.506 -s 3 -d 2 -p cbr -e 1000 -c 2 -i 49 -a 2 -x {3.0 2.0 49 ------- null}
+ -t 0.508 -s 3 -d 2 -p cbr -e 1000 -c 2 -i 51 -a 2 -x {3.0 2.0 51 ------- null}
- -t 0.508 -s 3 -d 2 -p cbr -e 1000 -c 2 -i 51 -a 2 -x {3.0 2.0 51 ------- null}
h -t 0.508 -s 3 -d 2 -p cbr -e 1000 -c 2 -i 51 -a 2 -x {3.0 2.0 -1 ------- null}
r -t 0.514 -s 3 -d 2 -p cbr -e 1000 -c 2 -i 50 -a 2 -x {3.0 2.0 50 ------- null}
+ -t 0.516 -s 3 -d 2 -p cbr -e 1000 -c 2 -i 52 -a 2 -x {3.0 2.0 52 ------- null}
- -t 0.516 -s 3 -d 2 -p cbr -e 1000 -c 2 -i 52 -a 2 -x {3.0 2.0 52 ------- null}
h -t 0.516 -s 3 -d 2 -p cbr -e 1000 -c 2 -i 52 -a 2 -x {3.0 2.0 -1 ------- null}
r -t 0.522 -s 3 -d 2 -p cbr -e 1000 -c 2 -i 51 -a 2 -x {3.0 2.0 51 ------- null}
+ -t 0.524 -s 3 -d 2 -p cbr -e 1000 -c 2 -i 53 -a 2 -x {3.0 2.0 53 ------- null}
- -t 0.524 -s 3 -d 2 -p cbr -e 1000 -c 2 -i 53 -a 2 -x {3.0 2.0 53 ------- null}
h -t 0.524 -s 3 -d 2 -p cbr -e 1000 -c 2 -i 53 -a 2 -x {3.0 2.0 -1 ------- null}
r -t 0.53 -s 3 -d 2 -p cbr -e 1000 -c 2 -i 52 -a 2 -x {3.0 2.0 52 ------- null}
+ -t 0.532 -s 3 -d 2 -p cbr -e 1000 -c 2 -i 54 -a 2 -x {3.0 2.0 54 ------- null}
- -t 0.532 -s 3 -d 2 -p cbr -e 1000 -c 2 -i 54 -a 2 -x {3.0 2.0 54 ------- null}
h -t 0.532 -s 3 -d 2 -p cbr -e 1000 -c 2 -i 54 -a 2 -x {3.0 2.0 -1 ------- null}
r -t 0.538 -s 3 -d 2 -p cbr -e 1000 -c 2 -i 53 -a 2 -x {3.0 2.0 53 ------- null}
+ -t 0.54 -s 3 -d 2 -p cbr -e 1000 -c 2 -i 55 -a 2 -x {3.0 2.0 55 ------- null}
- -t 0.54 -s 3 -d 2 -p cbr -e 1000 -c 2 -i 55 -a 2 -x {3.0 2.0 55 ------- null}
h -t 0.54 -s 3 -d 2 -p cbr -e 1000 -c 2 -i 55 -a 2 -x {3.0 2.0 -1 ------- null}
r -t 0.546 -s 3 -d 2 -p cbr -e 1000 -c 2 -i 54 -a 2 -x {3.0 2.0 54 ------- null}
+ -t 0.548 -s 3 -d 2 -p cbr -e 1000 -c 2 -i 56 -a 2 -x {3.0 2.0 56 ------- null}
- -t 0.548 -s 3 -d 2 -p cbr -e 1000 -c 2 -i 56 -a 2 -x {3.0 2.0 56 ------- null}
h -t 0.548 -s 3 -d 2 -p cbr -e 1000 -c 2 -i 56 -a 2 -x {3.0 2.0 -1 ------- null}
r -t 0.554 -s 3 -d 2 -p cbr -e 1000 -c 2 -i 55 -a 2 -x {3.0 2.0 55 ------- null}
+ -t 0.556 -s 3 -d 2 -p cbr -e 1000 -c 2 -i 57 -a 2 -x {3.0 2.0 57 ------- null}
- -t 0.556 -s 3 -d 2 -p cbr -e 1000 -c 2 -i 57 -a 2 -x {3.0 2.0 57 ------- null}
h -t 0.556 -s 3 -d 2 -p cbr -e 1000 -c 2 -i 57 -a 2 -x {3.0 2.0 -1 ------- null}
r -t 0.562 -s 3 -d 2 -p cbr -e 1000 -c 2 -i 56 -a 2 -x {3.0 2.0 56 ------- null}
+ -t 0.564 -s 3 -d 2 -p cbr -e 1000 -c 2 -i 58 -a 2 -x {3.0 2.0 58 ------- null}
- -t 0.564 -s 3 -d 2 -p cbr -e 1000 -c 2 -i 58 -a 2 -x {3.0 2.0 58 ------- null}
h -t 0.564 -s 3 -d 2 -p cbr -e 1000 -c 2 -i 58 -a 2 -x {3.0 2.0 -1 ------- null}
r -t 0.57 -s 3 -d 2 -p cbr -e 1000 -c 2 -i 57 -a 2 -x {3.0 2.0 57 ------- null}
+ -t 0.572 -s 3 -d 2 -p cbr -e 1000 -c 2 -i 59 -a 2 -x {3.0 2.0 59 ------- null}
- -t 0.572 -s 3 -d 2 -p cbr -e 1000 -c 2 -i 59 -a 2 -x {3.0 2.0 59 ------- null}
h -t 0.572 -s 3 -d 2 -p cbr -e 1000 -c 2 -i 59 -a 2 -x {3.0 2.0 -1 ------- null}
r -t 0.578 -s 3 -d 2 -p cbr -e 1000 -c 2 -i 58 -a 2 -x {3.0 2.0 58 ------- null}
+ -t 0.58 -s 3 -d 2 -p cbr -e 1000 -c 2 -i 60 -a 2 -x {3.0 2.0 60 ------- null}
- -t 0.58 -s 3 -d 2 -p cbr -e 1000 -c 2 -i 60 -a 2 -x {3.0 2.0 60 ------- null}
h -t 0.58 -s 3 -d 2 -p cbr -e 1000 -c 2 -i 60 -a 2 -x {3.0 2.0 -1 ------- null}
r -t 0.586 -s 3 -d 2 -p cbr -e 1000 -c 2 -i 59 -a 2 -x {3.0 2.0 59 ------- null}
+ -t 0.588 -s 3 -d 2 -p cbr -e 1000 -c 2 -i 61 -a 2 -x {3.0 2.0 61 ------- null}
- -t 0.588 -s 3 -d 2 -p cbr -e 1000 -c 2 -i 61 -a 2 -x {3.0 2.0 61 ------- null}
h -t 0.588 -s 3 -d 2 -p cbr -e 1000 -c 2 -i 61 -a 2 -x {3.0 2.0 -1 ------- null}
r -t 0.594 -s 3 -d 2 -p cbr -e 1000 -c 2 -i 60 -a 2 -x {3.0 2.0 60 ------- null}
+ -t 0.596 -s 3 -d 2 -p cbr -e 1000 -c 2 -i 62 -a 2 -x {3.0 2.0 62 ------- null}
- -t 0.596 -s 3 -d 2 -p cbr -e 1000 -c 2 -i 62 -a 2 -x {3.0 2.0 62 ------- null}
h -t 0.596 -s 3 -d 2 -p cbr -e 1000 -c 2 -i 62 -a 2 -x {3.0 2.0 -1 ------- null}
r -t 0.602 -s 3 -d 2 -p cbr -e 1000 -c 2 -i 61 -a 2 -x {3.0 2.0 61 ------- null}
+ -t 0.604 -s 3 -d 2 -p cbr -e 1000 -c 2 -i 63 -a 2 -x {3.0 2.0 63 ------- null}
- -t 0.604 -s 3 -d 2 -p cbr -e 1000 -c 2 -i 63 -a 2 -x {3.0 2.0 63 ------- null}
h -t 0.604 -s 3 -d 2 -p cbr -e 1000 -c 2 -i 63 -a 2 -x {3.0 2.0 -1 ------- null}
r -t 0.61 -s 3 -d 2 -p cbr -e 1000 -c 2 -i 62 -a 2 -x {3.0 2.0 62 ------- null}
+ -t 0.612 -s 3 -d 2 -p cbr -e 1000 -c 2 -i 64 -a 2 -x {3.0 2.0 64 ------- null}
- -t 0.612 -s 3 -d 2 -p cbr -e 1000 -c 2 -i 64 -a 2 -x {3.0 2.0 64 ------- null}
h -t 0.612 -s 3 -d 2 -p cbr -e 1000 -c 2 -i 64 -a 2 -x {3.0 2.0 -1 ------- null}
r -t 0.618 -s 3 -d 2 -p cbr -e 1000 -c 2 -i 63 -a 2 -x {3.0 2.0 63 ------- null}
+ -t 0.62 -s 3 -d 2 -p cbr -e 1000 -c 2 -i 65 -a 2 -x {3.0 2.0 65 ------- null}
- -t 0.62 -s 3 -d 2 -p cbr -e 1000 -c 2 -i 65 -a 2 -x {3.0 2.0 65 ------- null}
h -t 0.62 -s 3 -d 2 -p cbr -e 1000 -c 2 -i 65 -a 2 -x {3.0 2.0 -1 ------- null}
r -t 0.626 -s 3 -d 2 -p cbr -e 1000 -c 2 -i 64 -a 2 -x {3.0 2.0 64 ------- null}
+ -t 0.628 -s 3 -d 2 -p cbr -e 1000 -c 2 -i 66 -a 2 -x {3.0 2.0 66 ------- null}
- -t 0.628 -s 3 -d 2 -p cbr -e 1000 -c 2 -i 66 -a 2 -x {3.0 2.0 66 ------- null}
h -t 0.628 -s 3 -d 2 -p cbr -e 1000 -c 2 -i 66 -a 2 -x {3.0 2.0 -1 ------- null}
r -t 0.634 -s 3 -d 2 -p cbr -e 1000 -c 2 -i 65 -a 2 -x {3.0 2.0 65 ------- null}
+ -t 0.636 -s 3 -d 2 -p cbr -e 1000 -c 2 -i 67 -a 2 -x {3.0 2.0 67 ------- null}
- -t 0.636 -s 3 -d 2 -p cbr -e 1000 -c 2 -i 67 -a 2 -x {3.0 2.0 67 ------- null}
h -t 0.636 -s 3 -d 2 -p cbr -e 1000 -c 2 -i 67 -a 2 -x {3.0 2.0 -1 ------- null}
r -t 0.642 -s 3 -d 2 -p cbr -e 1000 -c 2 -i 66 -a 2 -x {3.0 2.0 66 ------- null}
+ -t 0.644 -s 3 -d 2 -p cbr -e 1000 -c 2 -i 68 -a 2 -x {3.0 2.0 68 ------- null}
- -t 0.644 -s 3 -d 2 -p cbr -e 1000 -c 2 -i 68 -a 2 -x {3.0 2.0 68 ------- null}
h -t 0.644 -s 3 -d 2 -p cbr -e 1000 -c 2 -i 68 -a 2 -x {3.0 2.0 -1 ------- null}
r -t 0.65 -s 3 -d 2 -p cbr -e 1000 -c 2 -i 67 -a 2 -x {3.0 2.0 67 ------- null}
+ -t 0.652 -s 3 -d 2 -p cbr -e 1000 -c 2 -i 69 -a 2 -x {3.0 2.0 69 ------- null}
- -t 0.652 -s 3 -d 2 -p cbr -e 1000 -c 2 -i 69 -a 2 -x {3.0 2.0 69 ------- null}
h -t 0.652 -s 3 -d 2 -p cbr -e 1000 -c 2 -i 69 -a 2 -x {3.0 2.0 -1 ------- null}
r -t 0.658 -s 3 -d 2 -p cbr -e 1000 -c 2 -i 68 -a 2 -x {3.0 2.0 68 ------- null}
+ -t 0.66 -s 3 -d 2 -p cbr -e 1000 -c 2 -i 70 -a 2 -x {3.0 2.0 70 ------- null}
- -t 0.66 -s 3 -d 2 -p cbr -e 1000 -c 2 -i 70 -a 2 -x {3.0 2.0 70 ------- null}
h -t 0.66 -s 3 -d 2 -p cbr -e 1000 -c 2 -i 70 -a 2 -x {3.0 2.0 -1 ------- null}
r -t 0.666 -s 3 -d 2 -p cbr -e 1000 -c 2 -i 69 -a 2 -x {3.0 2.0 69 ------- null}
+ -t 0.668 -s 3 -d 2 -p cbr -e 1000 -c 2 -i 71 -a 2 -x {3.0 2.0 71 ------- null}
- -t 0.668 -s 3 -d 2 -p cbr -e 1000 -c 2 -i 71 -a 2 -x {3.0 2.0 71 ------- null}
h -t 0.668 -s 3 -d 2 -p cbr -e 1000 -c 2 -i 71 -a 2 -x {3.0 2.0 -1 ------- null}
r -t 0.674 -s 3 -d 2 -p cbr -e 1000 -c 2 -i 70 -a 2 -x {3.0 2.0 70 ------- null}
+ -t 0.676 -s 3 -d 2 -p cbr -e 1000 -c 2 -i 72 -a 2 -x {3.0 2.0 72 ------- null}
- -t 0.676 -s 3 -d 2 -p cbr -e 1000 -c 2 -i 72 -a 2 -x {3.0 2.0 72 ------- null}
h -t 0.676 -s 3 -d 2 -p cbr -e 1000 -c 2 -i 72 -a 2 -x {3.0 2.0 -1 ------- null}
r -t 0.682 -s 3 -d 2 -p cbr -e 1000 -c 2 -i 71 -a 2 -x {3.0 2.0 71 ------- null}
+ -t 0.684 -s 3 -d 2 -p cbr -e 1000 -c 2 -i 73 -a 2 -x {3.0 2.0 73 ------- null}
- -t 0.684 -s 3 -d 2 -p cbr -e 1000 -c 2 -i 73 -a 2 -x {3.0 2.0 73 ------- null}
h -t 0.684 -s 3 -d 2 -p cbr -e 1000 -c 2 -i 73 -a 2 -x {3.0 2.0 -1 ------- null}
r -t 0.690000000000001 -s 3 -d 2 -p cbr -e 1000 -c 2 -i 72 -a 2 -x {3.0 2.0 72 ------- null}
+ -t 0.692000000000001 -s 3 -d 2 -p cbr -e 1000 -c 2 -i 74 -a 2 -x {3.0 2.0 74 ------- null}
- -t 0.692000000000001 -s 3 -d 2 -p cbr -e 1000 -c 2 -i 74 -a 2 -x {3.0 2.0 74 ------- null}
h -t 0.692000000000001 -s 3 -d 2 -p cbr -e 1000 -c 2 -i 74 -a 2 -x {3.0 2.0 -1 ------- null}
r -t 0.698000000000001 -s 3 -d 2 -p cbr -e 1000 -c 2 -i 73 -a 2 -x {3.0 2.0 73 ------- null}
+ -t 0.700000000000001 -s 3 -d 2 -p cbr -e 1000 -c 2 -i 75 -a 2 -x {3.0 2.0 75 ------- null}
- -t 0.700000000000001 -s 3 -d 2 -p cbr -e 1000 -c 2 -i 75 -a 2 -x {3.0 2.0 75 ------- null}
h -t 0.700000000000001 -s 3 -d 2 -p cbr -e 1000 -c 2 -i 75 -a 2 -x {3.0 2.0 -1 ------- null}
r -t 0.706000000000001 -s 3 -d 2 -p cbr -e 1000 -c 2 -i 74 -a 2 -x {3.0 2.0 74 ------- null}
+ -t 0.708000000000001 -s 3 -d 2 -p cbr -e 1000 -c 2 -i 76 -a 2 -x {3.0 2.0 76 ------- null}
- -t 0.708000000000001 -s 3 -d 2 -p cbr -e 1000 -c 2 -i 76 -a 2 -x {3.0 2.0 76 ------- null}
h -t 0.708000000000001 -s 3 -d 2 -p cbr -e 1000 -c 2 -i 76 -a 2 -x {3.0 2.0 -1 ------- null}
r -t 0.714000000000001 -s 3 -d 2 -p cbr -e 1000 -c 2 -i 75 -a 2 -x {3.0 2.0 75 ------- null}
+ -t 0.716000000000001 -s 3 -d 2 -p cbr -e 1000 -c 2 -i 77 -a 2 -x {3.0 2.0 77 ------- null}
- -t 0.716000000000001 -s 3 -d 2 -p cbr -e 1000 -c 2 -i 77 -a 2 -x {3.0 2.0 77 ------- null}
h -t 0.716000000000001 -s 3 -d 2 -p cbr -e 1000 -c 2 -i 77 -a 2 -x {3.0 2.0 -1 ------- null}
r -t 0.722000000000001 -s 3 -d 2 -p cbr -e 1000 -c 2 -i 76 -a 2 -x {3.0 2.0 76 ------- null}
+ -t 0.724000000000001 -s 3 -d 2 -p cbr -e 1000 -c 2 -i 78 -a 2 -x {3.0 2.0 78 ------- null}
- -t 0.724000000000001 -s 3 -d 2 -p cbr -e 1000 -c 2 -i 78 -a 2 -x {3.0 2.0 78 ------- null}
h -t 0.724000000000001 -s 3 -d 2 -p cbr -e 1000 -c 2 -i 78 -a 2 -x {3.0 2.0 -1 ------- null}
r -t 0.730000000000001 -s 3 -d 2 -p cbr -e 1000 -c 2 -i 77 -a 2 -x {3.0 2.0 77 ------- null}
+ -t 0.732000000000001 -s 3 -d 2 -p cbr -e 1000 -c 2 -i 79 -a 2 -x {3.0 2.0 79 ------- null}
- -t 0.732000000000001 -s 3 -d 2 -p cbr -e 1000 -c 2 -i 79 -a 2 -x {3.0 2.0 79 ------- null}
h -t 0.732000000000001 -s 3 -d 2 -p cbr -e 1000 -c 2 -i 79 -a 2 -x {3.0 2.0 -1 ------- null}
r -t 0.738000000000001 -s 3 -d 2 -p cbr -e 1000 -c 2 -i 78 -a 2 -x {3.0 2.0 78 ------- null}
+ -t 0.740000000000001 -s 3 -d 2 -p cbr -e 1000 -c 2 -i 80 -a 2 -x {3.0 2.0 80 ------- null}
- -t 0.740000000000001 -s 3 -d 2 -p cbr -e 1000 -c 2 -i 80 -a 2 -x {3.0 2.0 80 ------- null}
h -t 0.740000000000001 -s 3 -d 2 -p cbr -e 1000 -c 2 -i 80 -a 2 -x {3.0 2.0 -1 ------- null}
r -t 0.746000000000001 -s 3 -d 2 -p cbr -e 1000 -c 2 -i 79 -a 2 -x {3.0 2.0 79 ------- null}
+ -t 0.748000000000001 -s 3 -d 2 -p cbr -e 1000 -c 2 -i 81 -a 2 -x {3.0 2.0 81 ------- null}
- -t 0.748000000000001 -s 3 -d 2 -p cbr -e 1000 -c 2 -i 81 -a 2 -x {3.0 2.0 81 ------- null}
h -t 0.748000000000001 -s 3 -d 2 -p cbr -e 1000 -c 2 -i 81 -a 2 -x {3.0 2.0 -1 ------- null}
r -t 0.754000000000001 -s 3 -d 2 -p cbr -e 1000 -c 2 -i 80 -a 2 -x {3.0 2.0 80 ------- null}
+ -t 0.756000000000001 -s 3 -d 2 -p cbr -e 1000 -c 2 -i 82 -a 2 -x {3.0 2.0 82 ------- null}
- -t 0.756000000000001 -s 3 -d 2 -p cbr -e 1000 -c 2 -i 82 -a 2 -x {3.0 2.0 82 ------- null}
h -t 0.756000000000001 -s 3 -d 2 -p cbr -e 1000 -c 2 -i 82 -a 2 -x {3.0 2.0 -1 ------- null}
r -t 0.762000000000001 -s 3 -d 2 -p cbr -e 1000 -c 2 -i 81 -a 2 -x {3.0 2.0 81 ------- null}
+ -t 0.764000000000001 -s 3 -d 2 -p cbr -e 1000 -c 2 -i 83 -a 2 -x {3.0 2.0 83 ------- null}
- -t 0.764000000000001 -s 3 -d 2 -p cbr -e 1000 -c 2 -i 83 -a 2 -x {3.0 2.0 83 ------- null}
h -t 0.764000000000001 -s 3 -d 2 -p cbr -e 1000 -c 2 -i 83 -a 2 -x {3.0 2.0 -1 ------- null}
r -t 0.770000000000001 -s 3 -d 2 -p cbr -e 1000 -c 2 -i 82 -a 2 -x {3.0 2.0 82 ------- null}
+ -t 0.772000000000001 -s 3 -d 2 -p cbr -e 1000 -c 2 -i 84 -a 2 -x {3.0 2.0 84 ------- null}
- -t 0.772000000000001 -s 3 -d 2 -p cbr -e 1000 -c 2 -i 84 -a 2 -x {3.0 2.0 84 ------- null}
h -t 0.772000000000001 -s 3 -d 2 -p cbr -e 1000 -c 2 -i 84 -a 2 -x {3.0 2.0 -1 ------- null}
r -t 0.778000000000001 -s 3 -d 2 -p cbr -e 1000 -c 2 -i 83 -a 2 -x {3.0 2.0 83 ------- null}
+ -t 0.780000000000001 -s 3 -d 2 -p cbr -e 1000 -c 2 -i 85 -a 2 -x {3.0 2.0 85 ------- null}
- -t 0.780000000000001 -s 3 -d 2 -p cbr -e 1000 -c 2 -i 85 -a 2 -x {3.0 2.0 85 ------- null}
h -t 0.780000000000001 -s 3 -d 2 -p cbr -e 1000 -c 2 -i 85 -a 2 -x {3.0 2.0 -1 ------- null}
r -t 0.786000000000001 -s 3 -d 2 -p cbr -e 1000 -c 2 -i 84 -a 2 -x {3.0 2.0 84 ------- null}
+ -t 0.788000000000001 -s 3 -d 2 -p cbr -e 1000 -c 2 -i 86 -a 2 -x {3.0 2.0 86 ------- null}
- -t 0.788000000000001 -s 3 -d 2 -p cbr -e 1000 -c 2 -i 86 -a 2 -x {3.0 2.0 86 ------- null}
h -t 0.788000000000001 -s 3 -d 2 -p cbr -e 1000 -c 2 -i 86 -a 2 -x {3.0 2.0 -1 ------- null}
r -t 0.794000000000001 -s 3 -d 2 -p cbr -e 1000 -c 2 -i 85 -a 2 -x {3.0 2.0 85 ------- null}
+ -t 0.796000000000001 -s 3 -d 2 -p cbr -e 1000 -c 2 -i 87 -a 2 -x {3.0 2.0 87 ------- null}
- -t 0.796000000000001 -s 3 -d 2 -p cbr -e 1000 -c 2 -i 87 -a 2 -x {3.0 2.0 87 ------- null}
h -t 0.796000000000001 -s 3 -d 2 -p cbr -e 1000 -c 2 -i 87 -a 2 -x {3.0 2.0 -1 ------- null}
r -t 0.802000000000001 -s 3 -d 2 -p cbr -e 1000 -c 2 -i 86 -a 2 -x {3.0 2.0 86 ------- null}
+ -t 0.804000000000001 -s 3 -d 2 -p cbr -e 1000 -c 2 -i 88 -a 2 -x {3.0 2.0 88 ------- null}
- -t 0.804000000000001 -s 3 -d 2 -p cbr -e 1000 -c 2 -i 88 -a 2 -x {3.0 2.0 88 ------- null}