+ 0.11016 2 3 tcp 40 ------- 0 0.0 4.0 0 0
- 0.11016 2 3 tcp 40 ------- 0 0.0 4.0 0 0
+ 0.114 2 3 tcp 1000 ------- 0 1.0 5.0 0 1
- 0.114 2 3 tcp 1000 ------- 0 1.0 5.0 0 1
r 0.311227 2 3 tcp 40 ------- 0 0.0 4.0 0 0
r 0.340667 2 3 tcp 1000 ------- 0 1.0 5.0 0 1
+ 0.616933 2 3 tcp 1040 ------- 0 0.0 4.0 1 4
- 0.616933 2 3 tcp 1040 ------- 0 0.0 4.0 1 4
+ 0.621093 2 3 tcp 1040 ------- 0 0.0 4.0 2 5
+ 0.630053 2 3 tcp 1000 ------- 0 1.0 5.0 1 6
- 0.644667 2 3 tcp 1040 ------- 0 0.0 4.0 2 5
- 0.6724 2 3 tcp 1000 ------- 0 1.0 5.0 1 6
r 0.844667 2 3 tcp 1040 ------- 0 0.0 4.0 1 4
r 0.8724 2 3 tcp 1040 ------- 0 0.0 4.0 2 5
r 0.899067 2 3 tcp 1000 ------- 0 1.0 5.0 1 6
+ 1.154373 2 3 tcp 1040 ------- 0 0.0 4.0 3 10
- 1.154373 2 3 tcp 1040 ------- 0 0.0 4.0 3 10
+ 1.158533 2 3 tcp 1040 ------- 0 0.0 4.0 4 11
- 1.182107 2 3 tcp 1040 ------- 0 0.0 4.0 4 11
+ 1.182107 2 3 tcp 1040 ------- 0 0.0 4.0 5 12
+ 1.186267 2 3 tcp 1040 ------- 0 0.0 4.0 6 13
+ 1.188453 2 3 tcp 1000 ------- 0 1.0 5.0 2 14
+ 1.192453 2 3 tcp 1000 ------- 0 1.0 5.0 3 15
d 1.192453 2 3 tcp 1000 ------- 0 1.0 5.0 3 15
+ 1.196453 2 3 tcp 1000 ------- 0 1.0 5.0 4 16
d 1.196453 2 3 tcp 1000 ------- 0 1.0 5.0 4 16
- 1.20984 2 3 tcp 1040 ------- 0 0.0 4.0 5 12
- 1.237573 2 3 tcp 1040 ------- 0 0.0 4.0 6 13
- 1.265307 2 3 tcp 1000 ------- 0 1.0 5.0 2 14
r 1.382107 2 3 tcp 1040 ------- 0 0.0 4.0 3 10
r 1.40984 2 3 tcp 1040 ------- 0 0.0 4.0 4 11
r 1.437573 2 3 tcp 1040 ------- 0 0.0 4.0 5 12
r 1.465307 2 3 tcp 1040 ------- 0 0.0 4.0 6 13
r 1.491973 2 3 tcp 1000 ------- 0 1.0 5.0 2 14
+ 1.691813 2 3 tcp 1040 ------- 0 0.0 4.0 7 22
- 1.691813 2 3 tcp 1040 ------- 0 0.0 4.0 7 22
+ 1.695973 2 3 tcp 1040 ------- 0 0.0 4.0 8 23
- 1.719547 2 3 tcp 1040 ------- 0 0.0 4.0 8 23
+ 1.719547 2 3 tcp 1040 ------- 0 0.0 4.0 9 24
+ 1.723707 2 3 tcp 1040 ------- 0 0.0 4.0 10 25
- 1.74728 2 3 tcp 1040 ------- 0 0.0 4.0 9 24
+ 1.74728 2 3 tcp 1040 ------- 0 0.0 4.0 11 26
+ 1.75144 2 3 tcp 1040 ------- 0 0.0 4.0 12 27
- 1.775013 2 3 tcp 1040 ------- 0 0.0 4.0 10 25
+ 1.775013 2 3 tcp 1040 ------- 0 0.0 4.0 13 28
+ 1.779173 2 3 tcp 1040 ------- 0 0.0 4.0 14 29
d 1.779173 2 3 tcp 1040 ------- 0 0.0 4.0 14 29
+ 1.78136 2 3 tcp 1000 ------- 0 1.0 5.0 5 30
d 1.78136 2 3 tcp 1000 ------- 0 1.0 5.0 5 30
- 1.802747 2 3 tcp 1040 ------- 0 0.0 4.0 11 26
- 1.83048 2 3 tcp 1040 ------- 0 0.0 4.0 12 27
- 1.858213 2 3 tcp 1040 ------- 0 0.0 4.0 13 28
r 1.919547 2 3 tcp 1040 ------- 0 0.0 4.0 7 22
r 1.94728 2 3 tcp 1040 ------- 0 0.0 4.0 8 23
r 1.975013 2 3 tcp 1040 ------- 0 0.0 4.0 9 24
r 2.002747 2 3 tcp 1040 ------- 0 0.0 4.0 10 25
r 2.03048 2 3 tcp 1040 ------- 0 0.0 4.0 11 26
r 2.058213 2 3 tcp 1040 ------- 0 0.0 4.0 12 27
r 2.085947 2 3 tcp 1040 ------- 0 0.0 4.0 13 28
+ 2.229253 2 3 tcp 1040 ------- 0 0.0 4.0 15 38
- 2.229253 2 3 tcp 1040 ------- 0 0.0 4.0 15 38
+ 2.233413 2 3 tcp 1040 ------- 0 0.0 4.0 16 39
- 2.256987 2 3 tcp 1040 ------- 0 0.0 4.0 16 39
+ 2.256987 2 3 tcp 1040 ------- 0 0.0 4.0 17 40
+ 2.261147 2 3 tcp 1040 ------- 0 0.0 4.0 18 41
- 2.28472 2 3 tcp 1040 ------- 0 0.0 4.0 17 40
+ 2.28472 2 3 tcp 1040 ------- 0 0.0 4.0 19 42
+ 2.28888 2 3 tcp 1040 ------- 0 0.0 4.0 20 43
- 2.312453 2 3 tcp 1040 ------- 0 0.0 4.0 18 41
+ 2.312453 2 3 tcp 1040 ------- 0 0.0 4.0 21 44
+ 2.316613 2 3 tcp 1040 ------- 0 0.0 4.0 22 45
d 2.316613 2 3 tcp 1040 ------- 0 0.0 4.0 22 45
- 2.340187 2 3 tcp 1040 ------- 0 0.0 4.0 19 42
+ 2.340187 2 3 tcp 1040 ------- 0 0.0 4.0 23 46
+ 2.344347 2 3 tcp 1040 ------- 0 0.0 4.0 24 47
d 2.344347 2 3 tcp 1040 ------- 0 0.0 4.0 24 47
- 2.36792 2 3 tcp 1040 ------- 0 0.0 4.0 20 43
+ 2.36792 2 3 tcp 1040 ------- 0 0.0 4.0 25 48
+ 2.37208 2 3 tcp 1040 ------- 0 0.0 4.0 26 49
d 2.37208 2 3 tcp 1040 ------- 0 0.0 4.0 26 49
- 2.395653 2 3 tcp 1040 ------- 0 0.0 4.0 21 44
+ 2.395653 2 3 tcp 1040 ------- 0 0.0 4.0 27 50
+ 2.399813 2 3 tcp 1040 ------- 0 0.0 4.0 28 51
d 2.399813 2 3 tcp 1040 ------- 0 0.0 4.0 28 51
- 2.423387 2 3 tcp 1040 ------- 0 0.0 4.0 23 46
- 2.45112 2 3 tcp 1040 ------- 0 0.0 4.0 25 48
r 2.456987 2 3 tcp 1040 ------- 0 0.0 4.0 15 38
- 2.478853 2 3 tcp 1040 ------- 0 0.0 4.0 27 50
r 2.48472 2 3 tcp 1040 ------- 0 0.0 4.0 16 39
r 2.512453 2 3 tcp 1040 ------- 0 0.0 4.0 17 40
r 2.540187 2 3 tcp 1040 ------- 0 0.0 4.0 18 41
r 2.56792 2 3 tcp 1040 ------- 0 0.0 4.0 19 42
r 2.595653 2 3 tcp 1040 ------- 0 0.0 4.0 20 43
r 2.623387 2 3 tcp 1040 ------- 0 0.0 4.0 21 44
r 2.65112 2 3 tcp 1040 ------- 0 0.0 4.0 23 46
r 2.678853 2 3 tcp 1040 ------- 0 0.0 4.0 25 48
r 2.706587 2 3 tcp 1040 ------- 0 0.0 4.0 27 50
+ 2.766693 2 3 tcp 1040 ------- 0 0.0 4.0 29 62
- 2.766693 2 3 tcp 1040 ------- 0 0.0 4.0 29 62
+ 2.794427 2 3 tcp 1040 ------- 0 0.0 4.0 30 63
- 2.794427 2 3 tcp 1040 ------- 0 0.0 4.0 30 63
+ 2.82216 2 3 tcp 1040 ---A--- 0 0.0 4.0 14 64
- 2.82216 2 3 tcp 1040 ---A--- 0 0.0 4.0 14 64
r 2.994427 2 3 tcp 1040 ------- 0 0.0 4.0 29 62
+ 3.00136 2 3 tcp 1000 ------- 0 1.0 5.0 3 65
- 3.00136 2 3 tcp 1000 ------- 0 1.0 5.0 3 65
+ 3.00536 2 3 tcp 1000 ------- 0 1.0 5.0 4 66
r 3.02216 2 3 tcp 1040 ------- 0 0.0 4.0 30 63
- 3.028027 2 3 tcp 1000 ------- 0 1.0 5.0 4 66
r 3.049893 2 3 tcp 1040 ---A--- 0 0.0 4.0 14 64
r 3.228027 2 3 tcp 1000 ------- 0 1.0 5.0 3 65
r 3.254693 2 3 tcp 1000 ------- 0 1.0 5.0 4 66
+ 3.304133 2 3 tcp 1040 ------- 0 0.0 4.0 31 72
- 3.304133 2 3 tcp 1040 ------- 0 0.0 4.0 31 72
+ 3.331867 2 3 tcp 1040 ------- 0 0.0 4.0 32 73
- 3.331867 2 3 tcp 1040 ------- 0 0.0 4.0 32 73
+ 3.517413 2 3 tcp 1000 ------- 0 1.0 5.0 5 74
- 3.517413 2 3 tcp 1000 ------- 0 1.0 5.0 5 74
r 3.531867 2 3 tcp 1040 ------- 0 0.0 4.0 31 72
+ 3.54408 2 3 tcp 1000 ------- 0 1.0 5.0 6 75
- 3.54408 2 3 tcp 1000 ------- 0 1.0 5.0 6 75
r 3.5596 2 3 tcp 1040 ------- 0 0.0 4.0 32 73
r 3.74408 2 3 tcp 1000 ------- 0 1.0 5.0 5 74
r 3.770747 2 3 tcp 1000 ------- 0 1.0 5.0 6 75
+ 4.033467 2 3 tcp 1000 ------- 0 1.0 5.0 7 80
- 4.033467 2 3 tcp 1000 ------- 0 1.0 5.0 7 80
+ 4.060133 2 3 tcp 1000 ------- 0 1.0 5.0 8 81
- 4.060133 2 3 tcp 1000 ------- 0 1.0 5.0 8 81
+ 4.064133 2 3 tcp 1000 ------- 0 1.0 5.0 9 82
- 4.0868 2 3 tcp 1000 ------- 0 1.0 5.0 9 82
r 4.260133 2 3 tcp 1000 ------- 0 1.0 5.0 7 80
r 4.2868 2 3 tcp 1000 ------- 0 1.0 5.0 8 81
r 4.313467 2 3 tcp 1000 ------- 0 1.0 5.0 9 82
+ 4.3896 2 3 tcp 1040 ---A--- 0 0.0 4.0 22 86
- 4.3896 2 3 tcp 1040 ---A--- 0 0.0 4.0 22 86
+ 4.54952 2 3 tcp 1000 ------- 0 1.0 5.0 10 87
- 4.54952 2 3 tcp 1000 ------- 0 1.0 5.0 10 87
+ 4.576187 2 3 tcp 1000 ------- 0 1.0 5.0 11 88
- 4.576187 2 3 tcp 1000 ------- 0 1.0 5.0 11 88
+ 4.602853 2 3 tcp 1000 ------- 0 1.0 5.0 12 89
- 4.602853 2 3 tcp 1000 ------- 0 1.0 5.0 12 89
+ 4.606853 2 3 tcp 1000 ------- 0 1.0 5.0 13 90
r 4.617333 2 3 tcp 1040 ---A--- 0 0.0 4.0 22 86
- 4.62952 2 3 tcp 1000 ------- 0 1.0 5.0 13 90
r 4.776187 2 3 tcp 1000 ------- 0 1.0 5.0 10 87
r 4.802853 2 3 tcp 1000 ------- 0 1.0 5.0 11 88
r 4.82952 2 3 tcp 1000 ------- 0 1.0 5.0 12 89
r 4.856187 2 3 tcp 1000 ------- 0 1.0 5.0 13 90
+ 4.92704 2 3 tcp 1040 ------- 0 0.0 4.0 24 96
- 4.92704 2 3 tcp 1040 ------- 0 0.0 4.0 24 96
+ 4.9312 2 3 tcp 1040 ------- 0 0.0 4.0 25 97
- 4.954773 2 3 tcp 1040 ------- 0 0.0 4.0 25 97
+ 5.065573 2 3 tcp 1000 ------- 0 1.0 5.0 14 98
- 5.065573 2 3 tcp 1000 ------- 0 1.0 5.0 14 98
+ 5.09224 2 3 tcp 1000 ------- 0 1.0 5.0 15 99
- 5.09224 2 3 tcp 1000 ------- 0 1.0 5.0 15 99
+ 5.118907 2 3 tcp 1000 ------- 0 1.0 5.0 16 100
- 5.118907 2 3 tcp 1000 ------- 0 1.0 5.0 16 100
+ 5.145573 2 3 tcp 1000 ------- 0 1.0 5.0 17 101
- 5.145573 2 3 tcp 1000 ------- 0 1.0 5.0 17 101
+ 5.149573 2 3 tcp 1000 ------- 0 1.0 5.0 18 102
r 5.154773 2 3 tcp 1040 ------- 0 0.0 4.0 24 96
- 5.17224 2 3 tcp 1000 ------- 0 1.0 5.0 18 102
r 5.182507 2 3 tcp 1040 ------- 0 0.0 4.0 25 97
r 5.29224 2 3 tcp 1000 ------- 0 1.0 5.0 14 98
r 5.318907 2 3 tcp 1000 ------- 0 1.0 5.0 15 99
r 5.345573 2 3 tcp 1000 ------- 0 1.0 5.0 16 100
r 5.37224 2 3 tcp 1000 ------- 0 1.0 5.0 17 101
r 5.398907 2 3 tcp 1000 ------- 0 1.0 5.0 18 102
+ 5.46448 2 3 tcp 1040 ------- 0 0.0 4.0 26 110
- 5.46448 2 3 tcp 1040 ------- 0 0.0 4.0 26 110
+ 5.46864 2 3 tcp 1040 ------- 0 0.0 4.0 27 111
+ 5.4728 2 3 tcp 1040 ------- 0 0.0 4.0 28 112
- 5.492213 2 3 tcp 1040 ------- 0 0.0 4.0 27 111
+ 5.492213 2 3 tcp 1040 ------- 0 0.0 4.0 29 113
- 5.519947 2 3 tcp 1040 ------- 0 0.0 4.0 28 112
- 5.54768 2 3 tcp 1040 ------- 0 0.0 4.0 29 113
+ 5.581627 2 3 tcp 1000 ------- 0 1.0 5.0 19 114
- 5.581627 2 3 tcp 1000 ------- 0 1.0 5.0 19 114
+ 5.608293 2 3 tcp 1000 ------- 0 1.0 5.0 20 115
- 5.608293 2 3 tcp 1000 ------- 0 1.0 5.0 20 115
+ 5.63496 2 3 tcp 1000 ------- 0 1.0 5.0 21 116
- 5.63496 2 3 tcp 1000 ------- 0 1.0 5.0 21 116
+ 5.661627 2 3 tcp 1000 ------- 0 1.0 5.0 22 117
- 5.661627 2 3 tcp 1000 ------- 0 1.0 5.0 22 117
+ 5.688293 2 3 tcp 1000 ------- 0 1.0 5.0 23 118
- 5.688293 2 3 tcp 1000 ------- 0 1.0 5.0 23 118
r 5.692213 2 3 tcp 1040 ------- 0 0.0 4.0 26 110
+ 5.692293 2 3 tcp 1000 ------- 0 1.0 5.0 24 119
- 5.71496 2 3 tcp 1000 ------- 0 1.0 5.0 24 119
r 5.719947 2 3 tcp 1040 ------- 0 0.0 4.0 27 111
r 5.74768 2 3 tcp 1040 ------- 0 0.0 4.0 28 112
r 5.775413 2 3 tcp 1040 ------- 0 0.0 4.0 29 113
r 5.808293 2 3 tcp 1000 ------- 0 1.0 5.0 19 114
r 5.83496 2 3 tcp 1000 ------- 0 1.0 5.0 20 115
r 5.861627 2 3 tcp 1000 ------- 0 1.0 5.0 21 116
r 5.888293 2 3 tcp 1000 ------- 0 1.0 5.0 22 117
r 5.91496 2 3 tcp 1000 ------- 0 1.0 5.0 23 118
r 5.941627 2 3 tcp 1000 ------- 0 1.0 5.0 24 119
+ 6.00192 2 3 tcp 1040 ------- 0 0.0 4.0 30 130
- 6.00192 2 3 tcp 1040 ------- 0 0.0 4.0 30 130
+ 6.029653 2 3 tcp 1040 ------- 0 0.0 4.0 31 131
- 6.029653 2 3 tcp 1040 ------- 0 0.0 4.0 31 131
+ 6.057387 2 3 tcp 1040 ------- 0 0.0 4.0 33 132
- 6.057387 2 3 tcp 1040 ------- 0 0.0 4.0 33 132
+ 6.061547 2 3 tcp 1040 ------- 0 0.0 4.0 34 133
+ 6.065707 2 3 tcp 1040 ------- 0 0.0 4.0 35 134
- 6.08512 2 3 tcp 1040 ------- 0 0.0 4.0 34 133
+ 6.08512 2 3 tcp 1040 ------- 0 0.0 4.0 36 135
+ 6.09768 2 3 tcp 1000 ------- 0 1.0 5.0 25 136
- 6.112853 2 3 tcp 1040 ------- 0 0.0 4.0 35 134
+ 6.124347 2 3 tcp 1000 ------- 0 1.0 5.0 26 137
- 6.140587 2 3 tcp 1040 ------- 0 0.0 4.0 36 135
+ 6.151013 2 3 tcp 1000 ------- 0 1.0 5.0 27 138
- 6.16832 2 3 tcp 1000 ------- 0 1.0 5.0 25 136
+ 6.17768 2 3 tcp 1000 ------- 0 1.0 5.0 28 139
- 6.194987 2 3 tcp 1000 ------- 0 1.0 5.0 26 137
+ 6.204347 2 3 tcp 1000 ------- 0 1.0 5.0 29 140
- 6.221653 2 3 tcp 1000 ------- 0 1.0 5.0 27 138
r 6.229653 2 3 tcp 1040 ------- 0 0.0 4.0 30 130
+ 6.231013 2 3 tcp 1000 ------- 0 1.0 5.0 30 141
+ 6.235013 2 3 tcp 1000 ------- 0 1.0 5.0 31 142
d 6.235013 2 3 tcp 1000 ------- 0 1.0 5.0 31 142
- 6.24832 2 3 tcp 1000 ------- 0 1.0 5.0 28 139
r 6.257387 2 3 tcp 1040 ------- 0 0.0 4.0 31 131
- 6.274987 2 3 tcp 1000 ------- 0 1.0 5.0 29 140
r 6.28512 2 3 tcp 1040 ------- 0 0.0 4.0 33 132
- 6.301653 2 3 tcp 1000 ------- 0 1.0 5.0 30 141
r 6.312853 2 3 tcp 1040 ------- 0 0.0 4.0 34 133
r 6.340587 2 3 tcp 1040 ------- 0 0.0 4.0 35 134
r 6.36832 2 3 tcp 1040 ------- 0 0.0 4.0 36 135
r 6.394987 2 3 tcp 1000 ------- 0 1.0 5.0 25 136
r 6.421653 2 3 tcp 1000 ------- 0 1.0 5.0 26 137
r 6.44832 2 3 tcp 1000 ------- 0 1.0 5.0 27 138
r 6.474987 2 3 tcp 1000 ------- 0 1.0 5.0 28 139
r 6.501653 2 3 tcp 1000 ------- 0 1.0 5.0 29 140
r 6.52832 2 3 tcp 1000 ------- 0 1.0 5.0 30 141
+ 6.53936 2 3 tcp 1040 ------- 0 0.0 4.0 37 153
- 6.53936 2 3 tcp 1040 ------- 0 0.0 4.0 37 153
+ 6.62256 2 3 tcp 1040 ------- 0 0.0 4.0 38 156
- 6.62256 2 3 tcp 1040 ------- 0 0.0 4.0 38 156
+ 6.650293 2 3 tcp 1040 ------- 0 0.0 4.0 39 157
- 6.650293 2 3 tcp 1040 ------- 0 0.0 4.0 39 157
+ 6.678027 2 3 tcp 1040 ------- 0 0.0 4.0 40 158
- 6.678027 2 3 tcp 1040 ------- 0 0.0 4.0 40 158
+ 6.684373 2 3 tcp 1000 ------- 0 1.0 5.0 32 159
- 6.70576 2 3 tcp 1000 ------- 0 1.0 5.0 32 159
+ 6.71104 2 3 tcp 1000 ------- 0 1.0 5.0 33 160
- 6.732427 2 3 tcp 1000 ------- 0 1.0 5.0 33 160
+ 6.737707 2 3 tcp 1000 ------- 0 1.0 5.0 34 161
- 6.759093 2 3 tcp 1000 ------- 0 1.0 5.0 34 161
+ 6.764373 2 3 tcp 1000 ------- 0 1.0 5.0 35 162
r 6.767093 2 3 tcp 1040 ------- 0 0.0 4.0 37 153
- 6.78576 2 3 tcp 1000 ------- 0 1.0 5.0 35 162
+ 6.79104 2 3 tcp 1000 ------- 0 1.0 5.0 36 163
- 6.812427 2 3 tcp 1000 ------- 0 1.0 5.0 36 163
+ 6.817707 2 3 tcp 1000 ------- 0 1.0 5.0 37 164
- 6.839093 2 3 tcp 1000 ------- 0 1.0 5.0 37 164
r 6.850293 2 3 tcp 1040 ------- 0 0.0 4.0 38 156
r 6.878027 2 3 tcp 1040 ------- 0 0.0 4.0 39 157
r 6.90576 2 3 tcp 1040 ------- 0 0.0 4.0 40 158
r 6.932427 2 3 tcp 1000 ------- 0 1.0 5.0 32 159
r 6.959093 2 3 tcp 1000 ------- 0 1.0 5.0 33 160
r 6.98576 2 3 tcp 1000 ------- 0 1.0 5.0 34 161
r 7.012427 2 3 tcp 1000 ------- 0 1.0 5.0 35 162
r 7.039093 2 3 tcp 1000 ------- 0 1.0 5.0 36 163
r 7.06576 2 3 tcp 1000 ------- 0 1.0 5.0 37 164
+ 7.0768 2 3 tcp 1040 ------- 0 0.0 4.0 41 173
- 7.0768 2 3 tcp 1040 ------- 0 0.0 4.0 41 173
+ 7.16 2 3 tcp 1040 ------- 0 0.0 4.0 42 176
- 7.16 2 3 tcp 1040 ------- 0 0.0 4.0 42 176
+ 7.16416 2 3 tcp 1040 ------- 0 0.0 4.0 43 177
- 7.187733 2 3 tcp 1040 ------- 0 0.0 4.0 43 177
+ 7.187733 2 3 tcp 1040 ------- 0 0.0 4.0 44 178
- 7.215467 2 3 tcp 1040 ------- 0 0.0 4.0 44 178
+ 7.215467 2 3 tcp 1040 ------- 0 0.0 4.0 45 179
+ 7.221813 2 3 tcp 1000 ------- 0 1.0 5.0 31 180
- 7.2432 2 3 tcp 1040 ------- 0 0.0 4.0 45 179
+ 7.24848 2 3 tcp 1000 ------- 0 1.0 5.0 38 181
- 7.270933 2 3 tcp 1000 ------- 0 1.0 5.0 31 180
+ 7.275147 2 3 tcp 1000 ------- 0 1.0 5.0 39 182
- 7.2976 2 3 tcp 1000 ------- 0 1.0 5.0 38 181
+ 7.301813 2 3 tcp 1000 ------- 0 1.0 5.0 40 183
r 7.304533 2 3 tcp 1040 ------- 0 0.0 4.0 41 173
- 7.324267 2 3 tcp 1000 ------- 0 1.0 5.0 39 182
+ 7.32848 2 3 tcp 1000 ------- 0 1.0 5.0 41 184
- 7.350933 2 3 tcp 1000 ------- 0 1.0 5.0 40 183
+ 7.355147 2 3 tcp 1000 ------- 0 1.0 5.0 42 185
- 7.3776 2 3 tcp 1000 ------- 0 1.0 5.0 41 184
r 7.387733 2 3 tcp 1040 ------- 0 0.0 4.0 42 176
- 7.404267 2 3 tcp 1000 ------- 0 1.0 5.0 42 185
r 7.415467 2 3 tcp 1040 ------- 0 0.0 4.0 43 177
r 7.4432 2 3 tcp 1040 ------- 0 0.0 4.0 44 178
r 7.470933 2 3 tcp 1040 ------- 0 0.0 4.0 45 179
r 7.4976 2 3 tcp 1000 ------- 0 1.0 5.0 31 180
r 7.524267 2 3 tcp 1000 ------- 0 1.0 5.0 38 181
r 7.550933 2 3 tcp 1000 ------- 0 1.0 5.0 39 182
r 7.5776 2 3 tcp 1000 ------- 0 1.0 5.0 40 183
r 7.604267 2 3 tcp 1000 ------- 0 1.0 5.0 41 184
+ 7.61424 2 3 tcp 1040 ------- 0 0.0 4.0 46 194
- 7.61424 2 3 tcp 1040 ------- 0 0.0 4.0 46 194
r 7.630933 2 3 tcp 1000 ------- 0 1.0 5.0 42 185
+ 7.69744 2 3 tcp 1040 ------- 0 0.0 4.0 47 198
- 7.69744 2 3 tcp 1040 ------- 0 0.0 4.0 47 198
+ 7.725173 2 3 tcp 1040 ------- 0 0.0 4.0 48 199
- 7.725173 2 3 tcp 1040 ------- 0 0.0 4.0 48 199
+ 7.752907 2 3 tcp 1040 ------- 0 0.0 4.0 49 200
- 7.752907 2 3 tcp 1040 ------- 0 0.0 4.0 49 200
+ 7.757067 2 3 tcp 1040 ------- 0 0.0 4.0 50 201
- 7.78064 2 3 tcp 1040 ------- 0 0.0 4.0 50 201
+ 7.78064 2 3 tcp 1040 ------- 0 0.0 4.0 51 202
+ 7.786987 2 3 tcp 1000 ------- 0 1.0 5.0 43 203
- 7.808373 2 3 tcp 1040 ------- 0 0.0 4.0 51 202
+ 7.813653 2 3 tcp 1000 ------- 0 1.0 5.0 44 204
- 7.836107 2 3 tcp 1000 ------- 0 1.0 5.0 43 203
+ 7.84032 2 3 tcp 1000 ------- 0 1.0 5.0 45 205
r 7.841973 2 3 tcp 1040 ------- 0 0.0 4.0 46 194
- 7.862773 2 3 tcp 1000 ------- 0 1.0 5.0 44 204
+ 7.866987 2 3 tcp 1000 ------- 0 1.0 5.0 46 206
- 7.88944 2 3 tcp 1000 ------- 0 1.0 5.0 45 205
+ 7.893653 2 3 tcp 1000 ------- 0 1.0 5.0 47 207
- 7.916107 2 3 tcp 1000 ------- 0 1.0 5.0 46 206
+ 7.92032 2 3 tcp 1000 ------- 0 1.0 5.0 48 209
+ 7.92432 2 3 tcp 1000 ------- 0 1.0 5.0 49 210
r 7.925173 2 3 tcp 1040 ------- 0 0.0 4.0 47 198
- 7.942773 2 3 tcp 1000 ------- 0 1.0 5.0 47 207
r 7.952907 2 3 tcp 1040 ------- 0 0.0 4.0 48 199
- 7.96944 2 3 tcp 1000 ------- 0 1.0 5.0 48 209
r 7.98064 2 3 tcp 1040 ------- 0 0.0 4.0 49 200
- 7.996107 2 3 tcp 1000 ------- 0 1.0 5.0 49 210
r 8.008373 2 3 tcp 1040 ------- 0 0.0 4.0 50 201
r 8.036107 2 3 tcp 1040 ------- 0 0.0 4.0 51 202
r 8.062773 2 3 tcp 1000 ------- 0 1.0 5.0 43 203
r 8.08944 2 3 tcp 1000 ------- 0 1.0 5.0 44 204
r 8.116107 2 3 tcp 1000 ------- 0 1.0 5.0 45 205
r 8.142773 2 3 tcp 1000 ------- 0 1.0 5.0 46 206
+ 8.15168 2 3 tcp 1040 ------- 0 0.0 4.0 52 218
- 8.15168 2 3 tcp 1040 ------- 0 0.0 4.0 52 218
r 8.16944 2 3 tcp 1000 ------- 0 1.0 5.0 47 207
r 8.196107 2 3 tcp 1000 ------- 0 1.0 5.0 48 209
r 8.222773 2 3 tcp 1000 ------- 0 1.0 5.0 49 210
+ 8.23488 2 3 tcp 1040 ------- 0 0.0 4.0 53 222
- 8.23488 2 3 tcp 1040 ------- 0 0.0 4.0 53 222
+ 8.262613 2 3 tcp 1040 ------- 0 0.0 4.0 54 224
- 8.262613 2 3 tcp 1040 ------- 0 0.0 4.0 54 224
+ 8.290347 2 3 tcp 1040 ------- 0 0.0 4.0 55 226
- 8.290347 2 3 tcp 1040 ------- 0 0.0 4.0 55 226
+ 8.31808 2 3 tcp 1040 ------- 0 0.0 4.0 56 227
- 8.31808 2 3 tcp 1040 ------- 0 0.0 4.0 56 227
+ 8.32224 2 3 tcp 1040 ------- 0 0.0 4.0 57 228
+ 8.345813 2 3 tcp 1040 ------- 0 0.0 4.0 58 229
- 8.345813 2 3 tcp 1040 ------- 0 0.0 4.0 57 228
+ 8.35216 2 3 tcp 1000 ------- 0 1.0 5.0 50 230
- 8.373547 2 3 tcp 1040 ------- 0 0.0 4.0 58 229
+ 8.378827 2 3 tcp 1000 ------- 0 1.0 5.0 51 231
r 8.379413 2 3 tcp 1040 ------- 0 0.0 4.0 52 218
- 8.40128 2 3 tcp 1000 ------- 0 1.0 5.0 50 230
+ 8.405493 2 3 tcp 1000 ------- 0 1.0 5.0 52 232
- 8.427947 2 3 tcp 1000 ------- 0 1.0 5.0 51 231
+ 8.43216 2 3 tcp 1000 ------- 0 1.0 5.0 53 233
- 8.454613 2 3 tcp 1000 ------- 0 1.0 5.0 52 232
+ 8.458827 2 3 tcp 1000 ------- 0 1.0 5.0 54 235
r 8.462613 2 3 tcp 1040 ------- 0 0.0 4.0 53 222
- 8.48128 2 3 tcp 1000 ------- 0 1.0 5.0 53 233
+ 8.485493 2 3 tcp 1000 ------- 0 1.0 5.0 55 236
r 8.490347 2 3 tcp 1040 ------- 0 0.0 4.0 54 224
- 8.507947 2 3 tcp 1000 ------- 0 1.0 5.0 54 235
+ 8.51216 2 3 tcp 1000 ------- 0 1.0 5.0 56 237
r 8.51808 2 3 tcp 1040 ------- 0 0.0 4.0 55 226
- 8.534613 2 3 tcp 1000 ------- 0 1.0 5.0 55 236
r 8.545813 2 3 tcp 1040 ------- 0 0.0 4.0 56 227
- 8.56128 2 3 tcp 1000 ------- 0 1.0 5.0 56 237
r 8.573547 2 3 tcp 1040 ------- 0 0.0 4.0 57 228
r 8.60128 2 3 tcp 1040 ------- 0 0.0 4.0 58 229
r 8.627947 2 3 tcp 1000 ------- 0 1.0 5.0 50 230
r 8.654613 2 3 tcp 1000 ------- 0 1.0 5.0 51 231
r 8.68128 2 3 tcp 1000 ------- 0 1.0 5.0 52 232
+ 8.68912 2 3 tcp 1040 ------- 0 0.0 4.0 59 245
- 8.68912 2 3 tcp 1040 ------- 0 0.0 4.0 59 245
r 8.707947 2 3 tcp 1000 ------- 0 1.0 5.0 53 233
r 8.734613 2 3 tcp 1000 ------- 0 1.0 5.0 54 235
r 8.76128 2 3 tcp 1000 ------- 0 1.0 5.0 55 236
+ 8.77232 2 3 tcp 1040 ------- 0 0.0 4.0 60 249
- 8.77232 2 3 tcp 1040 ------- 0 0.0 4.0 60 249
r 8.787947 2 3 tcp 1000 ------- 0 1.0 5.0 56 237
+ 8.800053 2 3 tcp 1040 ------- 0 0.0 4.0 61 251
- 8.800053 2 3 tcp 1040 ------- 0 0.0 4.0 61 251
+ 8.827787 2 3 tcp 1040 ------- 0 0.0 4.0 62 253
- 8.827787 2 3 tcp 1040 ------- 0 0.0 4.0 62 253
+ 8.85552 2 3 tcp 1040 ------- 0 0.0 4.0 63 255
- 8.85552 2 3 tcp 1040 ------- 0 0.0 4.0 63 255
+ 8.883253 2 3 tcp 1040 ------- 0 0.0 4.0 64 256
- 8.883253 2 3 tcp 1040 ------- 0 0.0 4.0 64 256
+ 8.887413 2 3 tcp 1040 ------- 0 0.0 4.0 65 257
- 8.910987 2 3 tcp 1040 ------- 0 0.0 4.0 65 257
+ 8.910987 2 3 tcp 1040 ------- 0 0.0 4.0 66 258
r 8.916853 2 3 tcp 1040 ------- 0 0.0 4.0 59 245
+ 8.917333 2 3 tcp 1000 ------- 0 1.0 5.0 57 259
- 8.93872 2 3 tcp 1040 ------- 0 0.0 4.0 66 258
+ 8.944 2 3 tcp 1000 ------- 0 1.0 5.0 58 260
- 8.966453 2 3 tcp 1000 ------- 0 1.0 5.0 57 259
+ 8.970667 2 3 tcp 1000 ------- 0 1.0 5.0 59 261
- 8.99312 2 3 tcp 1000 ------- 0 1.0 5.0 58 260
+ 8.997333 2 3 tcp 1000 ------- 0 1.0 5.0 60 263
r 9.000053 2 3 tcp 1040 ------- 0 0.0 4.0 60 249
- 9.019787 2 3 tcp 1000 ------- 0 1.0 5.0 59 261
+ 9.024 2 3 tcp 1000 ------- 0 1.0 5.0 61 264
r 9.027787 2 3 tcp 1040 ------- 0 0.0 4.0 61 251
- 9.046453 2 3 tcp 1000 ------- 0 1.0 5.0 60 263
+ 9.050667 2 3 tcp 1000 ------- 0 1.0 5.0 62 265
r 9.05552 2 3 tcp 1040 ------- 0 0.0 4.0 62 253
- 9.07312 2 3 tcp 1000 ------- 0 1.0 5.0 61 264
+ 9.077333 2 3 tcp 1000 ------- 0 1.0 5.0 63 267
r 9.083253 2 3 tcp 1040 ------- 0 0.0 4.0 63 255
- 9.099787 2 3 tcp 1000 ------- 0 1.0 5.0 62 265
r 9.110987 2 3 tcp 1040 ------- 0 0.0 4.0 64 256
- 9.126453 2 3 tcp 1000 ------- 0 1.0 5.0 63 267
r 9.13872 2 3 tcp 1040 ------- 0 0.0 4.0 65 257
r 9.166453 2 3 tcp 1040 ------- 0 0.0 4.0 66 258
r 9.19312 2 3 tcp 1000 ------- 0 1.0 5.0 57 259
r 9.219787 2 3 tcp 1000 ------- 0 1.0 5.0 58 260
+ 9.22656 2 3 tcp 1040 ------- 0 0.0 4.0 67 274
- 9.22656 2 3 tcp 1040 ------- 0 0.0 4.0 67 274
r 9.246453 2 3 tcp 1000 ------- 0 1.0 5.0 59 261
r 9.27312 2 3 tcp 1000 ------- 0 1.0 5.0 60 263
r 9.299787 2 3 tcp 1000 ------- 0 1.0 5.0 61 264
+ 9.30976 2 3 tcp 1040 ------- 0 0.0 4.0 68 278
- 9.30976 2 3 tcp 1040 ------- 0 0.0 4.0 68 278
r 9.326453 2 3 tcp 1000 ------- 0 1.0 5.0 62 265
+ 9.337493 2 3 tcp 1040 ------- 0 0.0 4.0 69 280
- 9.337493 2 3 tcp 1040 ------- 0 0.0 4.0 69 280
r 9.35312 2 3 tcp 1000 ------- 0 1.0 5.0 63 267
+ 9.365227 2 3 tcp 1040 ------- 0 0.0 4.0 70 282
- 9.365227 2 3 tcp 1040 ------- 0 0.0 4.0 70 282
+ 9.39296 2 3 tcp 1040 ------- 0 0.0 4.0 71 284
- 9.39296 2 3 tcp 1040 ------- 0 0.0 4.0 71 284
+ 9.420693 2 3 tcp 1040 ------- 0 0.0 4.0 72 286
- 9.420693 2 3 tcp 1040 ------- 0 0.0 4.0 72 286
+ 9.448427 2 3 tcp 1040 ------- 0 0.0 4.0 73 287
- 9.448427 2 3 tcp 1040 ------- 0 0.0 4.0 73 287
r 9.454293 2 3 tcp 1040 ------- 0 0.0 4.0 67 274
+ 9.47616 2 3 tcp 1040 ------- 0 0.0 4.0 74 288
- 9.47616 2 3 tcp 1040 ------- 0 0.0 4.0 74 288
+ 9.48032 2 3 tcp 1040 ------- 0 0.0 4.0 75 289
+ 9.482507 2 3 tcp 1000 ------- 0 1.0 5.0 64 290
- 9.503893 2 3 tcp 1040 ------- 0 0.0 4.0 75 289
+ 9.509173 2 3 tcp 1000 ------- 0 1.0 5.0 65 291
- 9.531627 2 3 tcp 1000 ------- 0 1.0 5.0 64 290
+ 9.53584 2 3 tcp 1000 ------- 0 1.0 5.0 66 293
r 9.537493 2 3 tcp 1040 ------- 0 0.0 4.0 68 278
- 9.558293 2 3 tcp 1000 ------- 0 1.0 5.0 65 291
+ 9.562507 2 3 tcp 1000 ------- 0 1.0 5.0 67 294
r 9.565227 2 3 tcp 1040 ------- 0 0.0 4.0 69 280
- 9.58496 2 3 tcp 1000 ------- 0 1.0 5.0 66 293
+ 9.589173 2 3 tcp 1000 ------- 0 1.0 5.0 68 295
r 9.59296 2 3 tcp 1040 ------- 0 0.0 4.0 70 282
- 9.611627 2 3 tcp 1000 ------- 0 1.0 5.0 67 294
+ 9.61584 2 3 tcp 1000 ------- 0 1.0 5.0 69 297
r 9.620693 2 3 tcp 1040 ------- 0 0.0 4.0 71 284
- 9.638293 2 3 tcp 1000 ------- 0 1.0 5.0 68 295
+ 9.642507 2 3 tcp 1000 ------- 0 1.0 5.0 70 299
r 9.648427 2 3 tcp 1040 ------- 0 0.0 4.0 72 286
- 9.66496 2 3 tcp 1000 ------- 0 1.0 5.0 69 297
r 9.67616 2 3 tcp 1040 ------- 0 0.0 4.0 73 287
- 9.691627 2 3 tcp 1000 ------- 0 1.0 5.0 70 299
r 9.703893 2 3 tcp 1040 ------- 0 0.0 4.0 74 288
r 9.731627 2 3 tcp 1040 ------- 0 0.0 4.0 75 289
r 9.758293 2 3 tcp 1000 ------- 0 1.0 5.0 64 290
+ 9.764 2 3 tcp 1040 ------- 0 0.0 4.0 76 305
- 9.764 2 3 tcp 1040 ------- 0 0.0 4.0 76 305
r 9.78496 2 3 tcp 1000 ------- 0 1.0 5.0 65 291
r 9.811627 2 3 tcp 1000 ------- 0 1.0 5.0 66 293
r 9.838293 2 3 tcp 1000 ------- 0 1.0 5.0 67 294
+ 9.8472 2 3 tcp 1040 ------- 0 0.0 4.0 77 309
- 9.8472 2 3 tcp 1040 ------- 0 0.0 4.0 77 309
r 9.86496 2 3 tcp 1000 ------- 0 1.0 5.0 68 295
+ 9.874933 2 3 tcp 1040 ------- 0 0.0 4.0 78 311
- 9.874933 2 3 tcp 1040 ------- 0 0.0 4.0 78 311
r 9.891627 2 3 tcp 1000 ------- 0 1.0 5.0 69 297
+ 9.902667 2 3 tcp 1040 ------- 0 0.0 4.0 79 313
- 9.902667 2 3 tcp 1040 ------- 0 0.0 4.0 79 313
r 9.918293 2 3 tcp 1000 ------- 0 1.0 5.0 70 299
+ 9.9304 2 3 tcp 1040 ------- 0 0.0 4.0 80 315
- 9.9304 2 3 tcp 1040 ------- 0 0.0 4.0 80 315
+ 9.958133 2 3 tcp 1040 ------- 0 0.0 4.0 81 317
- 9.958133 2 3 tcp 1040 ------- 0 0.0 4.0 81 317
+ 9.985867 2 3 tcp 1040 ------- 0 0.0 4.0 82 319
- 9.985867 2 3 tcp 1040 ------- 0 0.0 4.0 82 319
r 9.991733 2 3 tcp 1040 ------- 0 0.0 4.0 76 305
+ 10.0136 2 3 tcp 1040 ------- 0 0.0 4.0 83 320
- 10.0136 2 3 tcp 1040 ------- 0 0.0 4.0 83 320
+ 10.041333 2 3 tcp 1040 ------- 0 0.0 4.0 84 321
- 10.041333 2 3 tcp 1040 ------- 0 0.0 4.0 84 321
+ 10.045493 2 3 tcp 1040 ------- 0 0.0 4.0 85 322
+ 10.04768 2 3 tcp 1000 ------- 0 1.0 5.0 71 323
- 10.069067 2 3 tcp 1040 ------- 0 0.0 4.0 85 322
+ 10.074347 2 3 tcp 1000 ------- 0 1.0 5.0 72 325
r 10.074933 2 3 tcp 1040 ------- 0 0.0 4.0 77 309
- 10.0968 2 3 tcp 1000 ------- 0 1.0 5.0 71 323
+ 10.101013 2 3 tcp 1000 ------- 0 1.0 5.0 73 326
r 10.102667 2 3 tcp 1040 ------- 0 0.0 4.0 78 311
- 10.123467 2 3 tcp 1000 ------- 0 1.0 5.0 72 325
+ 10.12768 2 3 tcp 1000 ------- 0 1.0 5.0 74 327
r 10.1304 2 3 tcp 1040 ------- 0 0.0 4.0 79 313
- 10.150133 2 3 tcp 1000 ------- 0 1.0 5.0 73 326
+ 10.154347 2 3 tcp 1000 ------- 0 1.0 5.0 75 329
r 10.158133 2 3 tcp 1040 ------- 0 0.0 4.0 80 315
- 10.1768 2 3 tcp 1000 ------- 0 1.0 5.0 74 327
+ 10.181013 2 3 tcp 1000 ------- 0 1.0 5.0 76 331
r 10.185867 2 3 tcp 1040 ------- 0 0.0 4.0 81 317
- 10.203467 2 3 tcp 1000 ------- 0 1.0 5.0 75 329
+ 10.20768 2 3 tcp 1000 ------- 0 1.0 5.0 77 333
r 10.2136 2 3 tcp 1040 ------- 0 0.0 4.0 82 319
- 10.230133 2 3 tcp 1000 ------- 0 1.0 5.0 76 331
r 10.241333 2 3 tcp 1040 ------- 0 0.0 4.0 83 320
- 10.2568 2 3 tcp 1000 ------- 0 1.0 5.0 77 333
r 10.269067 2 3 tcp 1040 ------- 0 0.0 4.0 84 321
r 10.2968 2 3 tcp 1040 ------- 0 0.0 4.0 85 322
+ 10.30144 2 3 tcp 1040 ------- 0 0.0 4.0 86 338
- 10.30144 2 3 tcp 1040 ------- 0 0.0 4.0 86 338
r 10.323467 2 3 tcp 1000 ------- 0 1.0 5.0 71 323
r 10.350133 2 3 tcp 1000 ------- 0 1.0 5.0 72 325
r 10.3768 2 3 tcp 1000 ------- 0 1.0 5.0 73 326
+ 10.38464 2 3 tcp 1040 ------- 0 0.0 4.0 87 342
- 10.38464 2 3 tcp 1040 ------- 0 0.0 4.0 87 342
r 10.403467 2 3 tcp 1000 ------- 0 1.0 5.0 74 327
+ 10.412373 2 3 tcp 1040 ------- 0 0.0 4.0 88 344
- 10.412373 2 3 tcp 1040 ------- 0 0.0 4.0 88 344
r 10.430133 2 3 tcp 1000 ------- 0 1.0 5.0 75 329
+ 10.440107 2 3 tcp 1040 ------- 0 0.0 4.0 89 346
- 10.440107 2 3 tcp 1040 ------- 0 0.0 4.0 89 346
r 10.4568 2 3 tcp 1000 ------- 0 1.0 5.0 76 331
+ 10.46784 2 3 tcp 1040 ------- 0 0.0 4.0 90 348
- 10.46784 2 3 tcp 1040 ------- 0 0.0 4.0 90 348
r 10.483467 2 3 tcp 1000 ------- 0 1.0 5.0 77 333
+ 10.495573 2 3 tcp 1040 ------- 0 0.0 4.0 91 350
- 10.495573 2 3 tcp 1040 ------- 0 0.0 4.0 91 350
+ 10.523307 2 3 tcp 1040 ------- 0 0.0 4.0 92 352
- 10.523307 2 3 tcp 1040 ------- 0 0.0 4.0 92 352
r 10.529173 2 3 tcp 1040 ------- 0 0.0 4.0 86 338
+ 10.55104 2 3 tcp 1040 ------- 0 0.0 4.0 93 354
- 10.55104 2 3 tcp 1040 ------- 0 0.0 4.0 93 354
+ 10.578773 2 3 tcp 1040 ------- 0 0.0 4.0 94 355
- 10.578773 2 3 tcp 1040 ------- 0 0.0 4.0 94 355
+ 10.606507 2 3 tcp 1040 ------- 0 0.0 4.0 95 357
- 10.606507 2 3 tcp 1040 ------- 0 0.0 4.0 95 357
r 10.612373 2 3 tcp 1040 ------- 0 0.0 4.0 87 342
+ 10.612853 2 3 tcp 1000 ------- 0 1.0 5.0 78 358
- 10.63424 2 3 tcp 1000 ------- 0 1.0 5.0 78 358
+ 10.63952 2 3 tcp 1000 ------- 0 1.0 5.0 79 359
r 10.640107 2 3 tcp 1040 ------- 0 0.0 4.0 88 344
- 10.660907 2 3 tcp 1000 ------- 0 1.0 5.0 79 359
+ 10.666187 2 3 tcp 1000 ------- 0 1.0 5.0 80 360
r 10.66784 2 3 tcp 1040 ------- 0 0.0 4.0 89 346
- 10.687573 2 3 tcp 1000 ------- 0 1.0 5.0 80 360
+ 10.692853 2 3 tcp 1000 ------- 0 1.0 5.0 81 362
r 10.695573 2 3 tcp 1040 ------- 0 0.0 4.0 90 348
- 10.71424 2 3 tcp 1000 ------- 0 1.0 5.0 81 362
+ 10.71952 2 3 tcp 1000 ------- 0 1.0 5.0 82 364
r 10.723307 2 3 tcp 1040 ------- 0 0.0 4.0 91 350
- 10.740907 2 3 tcp 1000 ------- 0 1.0 5.0 82 364
+ 10.746187 2 3 tcp 1000 ------- 0 1.0 5.0 83 366
r 10.75104 2 3 tcp 1040 ------- 0 0.0 4.0 92 352
- 10.767573 2 3 tcp 1000 ------- 0 1.0 5.0 83 366
+ 10.772853 2 3 tcp 1000 ------- 0 1.0 5.0 84 368
r 10.778773 2 3 tcp 1040 ------- 0 0.0 4.0 93 354
- 10.79424 2 3 tcp 1000 ------- 0 1.0 5.0 84 368
r 10.806507 2 3 tcp 1040 ------- 0 0.0 4.0 94 355
r 10.83424 2 3 tcp 1040 ------- 0 0.0 4.0 95 357
+ 10.83888 2 3 tcp 1040 ------- 0 0.0 4.0 96 372
- 10.83888 2 3 tcp 1040 ------- 0 0.0 4.0 96 372
+ 10.84304 2 3 tcp 1040 ------- 0 0.0 4.0 97 373
r 10.860907 2 3 tcp 1000 ------- 0 1.0 5.0 78 358
- 10.866613 2 3 tcp 1040 ------- 0 0.0 4.0 97 373
r 10.887573 2 3 tcp 1000 ------- 0 1.0 5.0 79 359
r 10.91424 2 3 tcp 1000 ------- 0 1.0 5.0 80 360
+ 10.92208 2 3 tcp 1040 ------- 0 0.0 4.0 98 377
- 10.92208 2 3 tcp 1040 ------- 0 0.0 4.0 98 377
r 10.940907 2 3 tcp 1000 ------- 0 1.0 5.0 81 362
+ 10.949813 2 3 tcp 1040 ------- 0 0.0 4.0 99 379
- 10.949813 2 3 tcp 1040 ------- 0 0.0 4.0 99 379
r 10.967573 2 3 tcp 1000 ------- 0 1.0 5.0 82 364
+ 10.977547 2 3 tcp 1040 ------- 0 0.0 4.0 100 381
- 10.977547 2 3 tcp 1040 ------- 0 0.0 4.0 100 381
r 10.99424 2 3 tcp 1000 ------- 0 1.0 5.0 83 366
+ 11.00528 2 3 tcp 1040 ------- 0 0.0 4.0 101 383
- 11.00528 2 3 tcp 1040 ------- 0 0.0 4.0 101 383
r 11.020907 2 3 tcp 1000 ------- 0 1.0 5.0 84 368
+ 11.033013 2 3 tcp 1040 ------- 0 0.0 4.0 102 385
- 11.033013 2 3 tcp 1040 ------- 0 0.0 4.0 102 385
+ 11.060747 2 3 tcp 1040 ------- 0 0.0 4.0 103 387
- 11.060747 2 3 tcp 1040 ------- 0 0.0 4.0 103 387
r 11.066613 2 3 tcp 1040 ------- 0 0.0 4.0 96 372
+ 11.08848 2 3 tcp 1040 ------- 0 0.0 4.0 104 389
- 11.08848 2 3 tcp 1040 ------- 0 0.0 4.0 104 389
r 11.094347 2 3 tcp 1040 ------- 0 0.0 4.0 97 373
+ 11.116213 2 3 tcp 1040 ------- 0 0.0 4.0 105 390
- 11.116213 2 3 tcp 1040 ------- 0 0.0 4.0 105 390
+ 11.143947 2 3 tcp 1040 ------- 0 0.0 4.0 106 392
- 11.143947 2 3 tcp 1040 ------- 0 0.0 4.0 106 392
r 11.149813 2 3 tcp 1040 ------- 0 0.0 4.0 98 377
+ 11.150293 2 3 tcp 1000 ------- 0 1.0 5.0 85 393
- 11.17168 2 3 tcp 1000 ------- 0 1.0 5.0 85 393
+ 11.17696 2 3 tcp 1000 ------- 0 1.0 5.0 86 395
r 11.177547 2 3 tcp 1040 ------- 0 0.0 4.0 99 379
- 11.198347 2 3 tcp 1000 ------- 0 1.0 5.0 86 395
+ 11.203627 2 3 tcp 1000 ------- 0 1.0 5.0 87 396
r 11.20528 2 3 tcp 1040 ------- 0 0.0 4.0 100 381
- 11.225013 2 3 tcp 1000 ------- 0 1.0 5.0 87 396
+ 11.230293 2 3 tcp 1000 ------- 0 1.0 5.0 88 398
r 11.233013 2 3 tcp 1040 ------- 0 0.0 4.0 101 383
- 11.25168 2 3 tcp 1000 ------- 0 1.0 5.0 88 398
+ 11.25696 2 3 tcp 1000 ------- 0 1.0 5.0 89 400
r 11.260747 2 3 tcp 1040 ------- 0 0.0 4.0 102 385
- 11.278347 2 3 tcp 1000 ------- 0 1.0 5.0 89 400
+ 11.283627 2 3 tcp 1000 ------- 0 1.0 5.0 90 402
r 11.28848 2 3 tcp 1040 ------- 0 0.0 4.0 103 387
- 11.305013 2 3 tcp 1000 ------- 0 1.0 5.0 90 402
+ 11.310293 2 3 tcp 1000 ------- 0 1.0 5.0 91 404