V -t * -v 1.0a5 -a 0
A -t * -n 1 -p 0 -o 0x7fffffff -c 30 -a 1
A -t * -h 1 -m 1073741823 -s 0
n -t * -a 4 -s 4 -S UP -v circle -c black -i black
n -t * -a 0 -s 0 -S UP -v circle -c black -i black
n -t * -a 5 -s 5 -S UP -v circle -c black -i black
n -t * -a 1 -s 1 -S UP -v circle -c black -i black
n -t * -a 2 -s 2 -S UP -v circle -c black -i black
n -t * -a 3 -s 3 -S UP -v circle -c black -i black
l -t * -s 0 -d 2 -S UP -r 2000000 -D 0.01 -c black
l -t * -s 1 -d 2 -S UP -r 2000000 -D 0.01 -c black
l -t * -s 2 -d 3 -S UP -r 300000 -D 0.20000000000000001 -c black
l -t * -s 3 -d 4 -S UP -r 2000000 -D 0.040000000000000001 -c black
l -t * -s 3 -d 5 -S UP -r 2000000 -D 0.029999999999999999 -c black
q -t * -s 3 -d 2 -a 0.5
q -t * -s 2 -d 3 -a 0.5
+ -t 0.1 -s 0 -d 2 -p tcp -e 40 -c 0 -i 0 -a 0 -x {0.0 4.0 0 ------- null}
- -t 0.1 -s 0 -d 2 -p tcp -e 40 -c 0 -i 0 -a 0 -x {0.0 4.0 0 ------- null}
h -t 0.1 -s 0 -d 2 -p tcp -e 40 -c 0 -i 0 -a 0 -x {0.0 4.0 -1 ------- null}
+ -t 0.1 -s 1 -d 2 -p tcp -e 1000 -c 0 -i 1 -a 0 -x {1.0 5.0 0 ------- null}
- -t 0.1 -s 1 -d 2 -p tcp -e 1000 -c 0 -i 1 -a 0 -x {1.0 5.0 0 ------- null}
h -t 0.1 -s 1 -d 2 -p tcp -e 1000 -c 0 -i 1 -a 0 -x {1.0 5.0 -1 ------- null}
r -t 0.11016 -s 0 -d 2 -p tcp -e 40 -c 0 -i 0 -a 0 -x {0.0 4.0 0 ------- null}
+ -t 0.11016 -s 2 -d 3 -p tcp -e 40 -c 0 -i 0 -a 0 -x {0.0 4.0 0 ------- null}
- -t 0.11016 -s 2 -d 3 -p tcp -e 40 -c 0 -i 0 -a 0 -x {0.0 4.0 0 ------- null}
h -t 0.11016 -s 2 -d 3 -p tcp -e 40 -c 0 -i 0 -a 0 -x {0.0 4.0 -1 ------- null}
r -t 0.114 -s 1 -d 2 -p tcp -e 1000 -c 0 -i 1 -a 0 -x {1.0 5.0 0 ------- null}
+ -t 0.114 -s 2 -d 3 -p tcp -e 1000 -c 0 -i 1 -a 0 -x {1.0 5.0 0 ------- null}
- -t 0.114 -s 2 -d 3 -p tcp -e 1000 -c 0 -i 1 -a 0 -x {1.0 5.0 0 ------- null}
h -t 0.114 -s 2 -d 3 -p tcp -e 1000 -c 0 -i 1 -a 0 -x {1.0 5.0 -1 ------- null}
r -t 0.311226666666667 -s 2 -d 3 -p tcp -e 40 -c 0 -i 0 -a 0 -x {0.0 4.0 0 ------- null}
+ -t 0.311226666666667 -s 3 -d 4 -p tcp -e 40 -c 0 -i 0 -a 0 -x {0.0 4.0 0 ------- null}
- -t 0.311226666666667 -s 3 -d 4 -p tcp -e 40 -c 0 -i 0 -a 0 -x {0.0 4.0 0 ------- null}
h -t 0.311226666666667 -s 3 -d 4 -p tcp -e 40 -c 0 -i 0 -a 0 -x {0.0 4.0 -1 ------- null}
r -t 0.340666666666667 -s 2 -d 3 -p tcp -e 1000 -c 0 -i 1 -a 0 -x {1.0 5.0 0 ------- null}
+ -t 0.340666666666667 -s 3 -d 5 -p tcp -e 1000 -c 0 -i 1 -a 0 -x {1.0 5.0 0 ------- null}
- -t 0.340666666666667 -s 3 -d 5 -p tcp -e 1000 -c 0 -i 1 -a 0 -x {1.0 5.0 0 ------- null}
h -t 0.340666666666667 -s 3 -d 5 -p tcp -e 1000 -c 0 -i 1 -a 0 -x {1.0 5.0 -1 ------- null}
r -t 0.351386666666667 -s 3 -d 4 -p tcp -e 40 -c 0 -i 0 -a 0 -x {0.0 4.0 0 ------- null}
+ -t 0.351386666666667 -s 4 -d 3 -p ack -e 40 -c 0 -i 2 -a 0 -x {4.0 0.0 0 ------- null}
- -t 0.351386666666667 -s 4 -d 3 -p ack -e 40 -c 0 -i 2 -a 0 -x {4.0 0.0 0 ------- null}
h -t 0.351386666666667 -s 4 -d 3 -p ack -e 40 -c 0 -i 2 -a 0 -x {4.0 0.0 -1 ------- null}
r -t 0.374666666666667 -s 3 -d 5 -p tcp -e 1000 -c 0 -i 1 -a 0 -x {1.0 5.0 0 ------- null}
+ -t 0.374666666666667 -s 5 -d 3 -p ack -e 40 -c 0 -i 3 -a 0 -x {5.0 1.0 0 ------- null}
- -t 0.374666666666667 -s 5 -d 3 -p ack -e 40 -c 0 -i 3 -a 0 -x {5.0 1.0 0 ------- null}
h -t 0.374666666666667 -s 5 -d 3 -p ack -e 40 -c 0 -i 3 -a 0 -x {5.0 1.0 -1 ------- null}
r -t 0.391546666666667 -s 4 -d 3 -p ack -e 40 -c 0 -i 2 -a 0 -x {4.0 0.0 0 ------- null}
+ -t 0.391546666666667 -s 3 -d 2 -p ack -e 40 -c 0 -i 2 -a 0 -x {4.0 0.0 0 ------- null}
- -t 0.391546666666667 -s 3 -d 2 -p ack -e 40 -c 0 -i 2 -a 0 -x {4.0 0.0 0 ------- null}
h -t 0.391546666666667 -s 3 -d 2 -p ack -e 40 -c 0 -i 2 -a 0 -x {4.0 0.0 -1 ------- null}
r -t 0.404826666666667 -s 5 -d 3 -p ack -e 40 -c 0 -i 3 -a 0 -x {5.0 1.0 0 ------- null}
+ -t 0.404826666666667 -s 3 -d 2 -p ack -e 40 -c 0 -i 3 -a 0 -x {5.0 1.0 0 ------- null}
- -t 0.404826666666667 -s 3 -d 2 -p ack -e 40 -c 0 -i 3 -a 0 -x {5.0 1.0 0 ------- null}
h -t 0.404826666666667 -s 3 -d 2 -p ack -e 40 -c 0 -i 3 -a 0 -x {5.0 1.0 -1 ------- null}
r -t 0.592613333333333 -s 3 -d 2 -p ack -e 40 -c 0 -i 2 -a 0 -x {4.0 0.0 0 ------- null}
+ -t 0.592613333333333 -s 2 -d 0 -p ack -e 40 -c 0 -i 2 -a 0 -x {4.0 0.0 0 ------- null}
- -t 0.592613333333333 -s 2 -d 0 -p ack -e 40 -c 0 -i 2 -a 0 -x {4.0 0.0 0 ------- null}
h -t 0.592613333333333 -s 2 -d 0 -p ack -e 40 -c 0 -i 2 -a 0 -x {4.0 0.0 -1 ------- null}
r -t 0.602773333333333 -s 2 -d 0 -p ack -e 40 -c 0 -i 2 -a 0 -x {4.0 0.0 0 ------- null}
+ -t 0.602773333333333 -s 0 -d 2 -p tcp -e 1040 -c 0 -i 4 -a 0 -x {0.0 4.0 1 ------- null}
- -t 0.602773333333333 -s 0 -d 2 -p tcp -e 1040 -c 0 -i 4 -a 0 -x {0.0 4.0 1 ------- null}
h -t 0.602773333333333 -s 0 -d 2 -p tcp -e 1040 -c 0 -i 4 -a 0 -x {0.0 4.0 -1 ------- null}
+ -t 0.602773333333333 -s 0 -d 2 -p tcp -e 1040 -c 0 -i 5 -a 0 -x {0.0 4.0 2 ------- null}
r -t 0.605893333333333 -s 3 -d 2 -p ack -e 40 -c 0 -i 3 -a 0 -x {5.0 1.0 0 ------- null}
+ -t 0.605893333333333 -s 2 -d 1 -p ack -e 40 -c 0 -i 3 -a 0 -x {5.0 1.0 0 ------- null}
- -t 0.605893333333333 -s 2 -d 1 -p ack -e 40 -c 0 -i 3 -a 0 -x {5.0 1.0 0 ------- null}
h -t 0.605893333333333 -s 2 -d 1 -p ack -e 40 -c 0 -i 3 -a 0 -x {5.0 1.0 -1 ------- null}
- -t 0.606933333333333 -s 0 -d 2 -p tcp -e 1040 -c 0 -i 5 -a 0 -x {0.0 4.0 2 ------- null}
h -t 0.606933333333333 -s 0 -d 2 -p tcp -e 1040 -c 0 -i 5 -a 0 -x {0.0 4.0 -1 ------- null}
r -t 0.616053333333333 -s 2 -d 1 -p ack -e 40 -c 0 -i 3 -a 0 -x {5.0 1.0 0 ------- null}
+ -t 0.616053333333333 -s 1 -d 2 -p tcp -e 1000 -c 0 -i 6 -a 0 -x {1.0 5.0 1 ------- null}
- -t 0.616053333333333 -s 1 -d 2 -p tcp -e 1000 -c 0 -i 6 -a 0 -x {1.0 5.0 1 ------- null}
h -t 0.616053333333333 -s 1 -d 2 -p tcp -e 1000 -c 0 -i 6 -a 0 -x {1.0 5.0 -1 ------- null}
r -t 0.616933333333333 -s 0 -d 2 -p tcp -e 1040 -c 0 -i 4 -a 0 -x {0.0 4.0 1 ------- null}
+ -t 0.616933333333333 -s 2 -d 3 -p tcp -e 1040 -c 0 -i 4 -a 0 -x {0.0 4.0 1 ------- null}
- -t 0.616933333333333 -s 2 -d 3 -p tcp -e 1040 -c 0 -i 4 -a 0 -x {0.0 4.0 1 ------- null}
h -t 0.616933333333333 -s 2 -d 3 -p tcp -e 1040 -c 0 -i 4 -a 0 -x {0.0 4.0 -1 ------- null}
r -t 0.621093333333333 -s 0 -d 2 -p tcp -e 1040 -c 0 -i 5 -a 0 -x {0.0 4.0 2 ------- null}
+ -t 0.621093333333333 -s 2 -d 3 -p tcp -e 1040 -c 0 -i 5 -a 0 -x {0.0 4.0 2 ------- null}
r -t 0.630053333333333 -s 1 -d 2 -p tcp -e 1000 -c 0 -i 6 -a 0 -x {1.0 5.0 1 ------- null}
+ -t 0.630053333333333 -s 2 -d 3 -p tcp -e 1000 -c 0 -i 6 -a 0 -x {1.0 5.0 1 ------- null}
- -t 0.644666666666666 -s 2 -d 3 -p tcp -e 1040 -c 0 -i 5 -a 0 -x {0.0 4.0 2 ------- null}
h -t 0.644666666666666 -s 2 -d 3 -p tcp -e 1040 -c 0 -i 5 -a 0 -x {0.0 4.0 -1 ------- null}
- -t 0.6724 -s 2 -d 3 -p tcp -e 1000 -c 0 -i 6 -a 0 -x {1.0 5.0 1 ------- null}
h -t 0.6724 -s 2 -d 3 -p tcp -e 1000 -c 0 -i 6 -a 0 -x {1.0 5.0 -1 ------- null}
r -t 0.844666666666666 -s 2 -d 3 -p tcp -e 1040 -c 0 -i 4 -a 0 -x {0.0 4.0 1 ------- null}
+ -t 0.844666666666666 -s 3 -d 4 -p tcp -e 1040 -c 0 -i 4 -a 0 -x {0.0 4.0 1 ------- null}
- -t 0.844666666666666 -s 3 -d 4 -p tcp -e 1040 -c 0 -i 4 -a 0 -x {0.0 4.0 1 ------- null}
h -t 0.844666666666666 -s 3 -d 4 -p tcp -e 1040 -c 0 -i 4 -a 0 -x {0.0 4.0 -1 ------- null}
r -t 0.8724 -s 2 -d 3 -p tcp -e 1040 -c 0 -i 5 -a 0 -x {0.0 4.0 2 ------- null}
+ -t 0.8724 -s 3 -d 4 -p tcp -e 1040 -c 0 -i 5 -a 0 -x {0.0 4.0 2 ------- null}
- -t 0.8724 -s 3 -d 4 -p tcp -e 1040 -c 0 -i 5 -a 0 -x {0.0 4.0 2 ------- null}
h -t 0.8724 -s 3 -d 4 -p tcp -e 1040 -c 0 -i 5 -a 0 -x {0.0 4.0 -1 ------- null}
r -t 0.888826666666666 -s 3 -d 4 -p tcp -e 1040 -c 0 -i 4 -a 0 -x {0.0 4.0 1 ------- null}
+ -t 0.888826666666666 -s 4 -d 3 -p ack -e 40 -c 0 -i 7 -a 0 -x {4.0 0.0 1 ------- null}
- -t 0.888826666666666 -s 4 -d 3 -p ack -e 40 -c 0 -i 7 -a 0 -x {4.0 0.0 1 ------- null}
h -t 0.888826666666666 -s 4 -d 3 -p ack -e 40 -c 0 -i 7 -a 0 -x {4.0 0.0 -1 ------- null}
r -t 0.899066666666667 -s 2 -d 3 -p tcp -e 1000 -c 0 -i 6 -a 0 -x {1.0 5.0 1 ------- null}
+ -t 0.899066666666667 -s 3 -d 5 -p tcp -e 1000 -c 0 -i 6 -a 0 -x {1.0 5.0 1 ------- null}
- -t 0.899066666666667 -s 3 -d 5 -p tcp -e 1000 -c 0 -i 6 -a 0 -x {1.0 5.0 1 ------- null}
h -t 0.899066666666667 -s 3 -d 5 -p tcp -e 1000 -c 0 -i 6 -a 0 -x {1.0 5.0 -1 ------- null}
r -t 0.91656 -s 3 -d 4 -p tcp -e 1040 -c 0 -i 5 -a 0 -x {0.0 4.0 2 ------- null}
+ -t 0.91656 -s 4 -d 3 -p ack -e 40 -c 0 -i 8 -a 0 -x {4.0 0.0 2 ------- null}
- -t 0.91656 -s 4 -d 3 -p ack -e 40 -c 0 -i 8 -a 0 -x {4.0 0.0 2 ------- null}
h -t 0.91656 -s 4 -d 3 -p ack -e 40 -c 0 -i 8 -a 0 -x {4.0 0.0 -1 ------- null}
r -t 0.928986666666666 -s 4 -d 3 -p ack -e 40 -c 0 -i 7 -a 0 -x {4.0 0.0 1 ------- null}
+ -t 0.928986666666666 -s 3 -d 2 -p ack -e 40 -c 0 -i 7 -a 0 -x {4.0 0.0 1 ------- null}
- -t 0.928986666666666 -s 3 -d 2 -p ack -e 40 -c 0 -i 7 -a 0 -x {4.0 0.0 1 ------- null}
h -t 0.928986666666666 -s 3 -d 2 -p ack -e 40 -c 0 -i 7 -a 0 -x {4.0 0.0 -1 ------- null}
r -t 0.933066666666667 -s 3 -d 5 -p tcp -e 1000 -c 0 -i 6 -a 0 -x {1.0 5.0 1 ------- null}
+ -t 0.933066666666667 -s 5 -d 3 -p ack -e 40 -c 0 -i 9 -a 0 -x {5.0 1.0 1 ------- null}
- -t 0.933066666666667 -s 5 -d 3 -p ack -e 40 -c 0 -i 9 -a 0 -x {5.0 1.0 1 ------- null}
h -t 0.933066666666667 -s 5 -d 3 -p ack -e 40 -c 0 -i 9 -a 0 -x {5.0 1.0 -1 ------- null}
r -t 0.95672 -s 4 -d 3 -p ack -e 40 -c 0 -i 8 -a 0 -x {4.0 0.0 2 ------- null}
+ -t 0.95672 -s 3 -d 2 -p ack -e 40 -c 0 -i 8 -a 0 -x {4.0 0.0 2 ------- null}
- -t 0.95672 -s 3 -d 2 -p ack -e 40 -c 0 -i 8 -a 0 -x {4.0 0.0 2 ------- null}
h -t 0.95672 -s 3 -d 2 -p ack -e 40 -c 0 -i 8 -a 0 -x {4.0 0.0 -1 ------- null}
r -t 0.963226666666667 -s 5 -d 3 -p ack -e 40 -c 0 -i 9 -a 0 -x {5.0 1.0 1 ------- null}
+ -t 0.963226666666667 -s 3 -d 2 -p ack -e 40 -c 0 -i 9 -a 0 -x {5.0 1.0 1 ------- null}
- -t 0.963226666666667 -s 3 -d 2 -p ack -e 40 -c 0 -i 9 -a 0 -x {5.0 1.0 1 ------- null}
h -t 0.963226666666667 -s 3 -d 2 -p ack -e 40 -c 0 -i 9 -a 0 -x {5.0 1.0 -1 ------- null}
r -t 1.13005333333333 -s 3 -d 2 -p ack -e 40 -c 0 -i 7 -a 0 -x {4.0 0.0 1 ------- null}
+ -t 1.13005333333333 -s 2 -d 0 -p ack -e 40 -c 0 -i 7 -a 0 -x {4.0 0.0 1 ------- null}
- -t 1.13005333333333 -s 2 -d 0 -p ack -e 40 -c 0 -i 7 -a 0 -x {4.0 0.0 1 ------- null}
h -t 1.13005333333333 -s 2 -d 0 -p ack -e 40 -c 0 -i 7 -a 0 -x {4.0 0.0 -1 ------- null}
r -t 1.14021333333333 -s 2 -d 0 -p ack -e 40 -c 0 -i 7 -a 0 -x {4.0 0.0 1 ------- null}
+ -t 1.14021333333333 -s 0 -d 2 -p tcp -e 1040 -c 0 -i 10 -a 0 -x {0.0 4.0 3 ------- null}
- -t 1.14021333333333 -s 0 -d 2 -p tcp -e 1040 -c 0 -i 10 -a 0 -x {0.0 4.0 3 ------- null}
h -t 1.14021333333333 -s 0 -d 2 -p tcp -e 1040 -c 0 -i 10 -a 0 -x {0.0 4.0 -1 ------- null}
+ -t 1.14021333333333 -s 0 -d 2 -p tcp -e 1040 -c 0 -i 11 -a 0 -x {0.0 4.0 4 ------- null}
- -t 1.14437333333333 -s 0 -d 2 -p tcp -e 1040 -c 0 -i 11 -a 0 -x {0.0 4.0 4 ------- null}
h -t 1.14437333333333 -s 0 -d 2 -p tcp -e 1040 -c 0 -i 11 -a 0 -x {0.0 4.0 -1 ------- null}
r -t 1.15437333333333 -s 0 -d 2 -p tcp -e 1040 -c 0 -i 10 -a 0 -x {0.0 4.0 3 ------- null}
+ -t 1.15437333333333 -s 2 -d 3 -p tcp -e 1040 -c 0 -i 10 -a 0 -x {0.0 4.0 3 ------- null}
- -t 1.15437333333333 -s 2 -d 3 -p tcp -e 1040 -c 0 -i 10 -a 0 -x {0.0 4.0 3 ------- null}
h -t 1.15437333333333 -s 2 -d 3 -p tcp -e 1040 -c 0 -i 10 -a 0 -x {0.0 4.0 -1 ------- null}
r -t 1.15778666666667 -s 3 -d 2 -p ack -e 40 -c 0 -i 8 -a 0 -x {4.0 0.0 2 ------- null}
+ -t 1.15778666666667 -s 2 -d 0 -p ack -e 40 -c 0 -i 8 -a 0 -x {4.0 0.0 2 ------- null}
- -t 1.15778666666667 -s 2 -d 0 -p ack -e 40 -c 0 -i 8 -a 0 -x {4.0 0.0 2 ------- null}
h -t 1.15778666666667 -s 2 -d 0 -p ack -e 40 -c 0 -i 8 -a 0 -x {4.0 0.0 -1 ------- null}
r -t 1.15853333333333 -s 0 -d 2 -p tcp -e 1040 -c 0 -i 11 -a 0 -x {0.0 4.0 4 ------- null}
+ -t 1.15853333333333 -s 2 -d 3 -p tcp -e 1040 -c 0 -i 11 -a 0 -x {0.0 4.0 4 ------- null}
r -t 1.16429333333333 -s 3 -d 2 -p ack -e 40 -c 0 -i 9 -a 0 -x {5.0 1.0 1 ------- null}
+ -t 1.16429333333333 -s 2 -d 1 -p ack -e 40 -c 0 -i 9 -a 0 -x {5.0 1.0 1 ------- null}
- -t 1.16429333333333 -s 2 -d 1 -p ack -e 40 -c 0 -i 9 -a 0 -x {5.0 1.0 1 ------- null}
h -t 1.16429333333333 -s 2 -d 1 -p ack -e 40 -c 0 -i 9 -a 0 -x {5.0 1.0 -1 ------- null}
r -t 1.16794666666667 -s 2 -d 0 -p ack -e 40 -c 0 -i 8 -a 0 -x {4.0 0.0 2 ------- null}
+ -t 1.16794666666667 -s 0 -d 2 -p tcp -e 1040 -c 0 -i 12 -a 0 -x {0.0 4.0 5 ------- null}
- -t 1.16794666666667 -s 0 -d 2 -p tcp -e 1040 -c 0 -i 12 -a 0 -x {0.0 4.0 5 ------- null}
h -t 1.16794666666667 -s 0 -d 2 -p tcp -e 1040 -c 0 -i 12 -a 0 -x {0.0 4.0 -1 ------- null}
+ -t 1.16794666666667 -s 0 -d 2 -p tcp -e 1040 -c 0 -i 13 -a 0 -x {0.0 4.0 6 ------- null}
- -t 1.17210666666667 -s 0 -d 2 -p tcp -e 1040 -c 0 -i 13 -a 0 -x {0.0 4.0 6 ------- null}
h -t 1.17210666666667 -s 0 -d 2 -p tcp -e 1040 -c 0 -i 13 -a 0 -x {0.0 4.0 -1 ------- null}
r -t 1.17445333333333 -s 2 -d 1 -p ack -e 40 -c 0 -i 9 -a 0 -x {5.0 1.0 1 ------- null}
+ -t 1.17445333333333 -s 1 -d 2 -p tcp -e 1000 -c 0 -i 14 -a 0 -x {1.0 5.0 2 ------- null}
- -t 1.17445333333333 -s 1 -d 2 -p tcp -e 1000 -c 0 -i 14 -a 0 -x {1.0 5.0 2 ------- null}
h -t 1.17445333333333 -s 1 -d 2 -p tcp -e 1000 -c 0 -i 14 -a 0 -x {1.0 5.0 -1 ------- null}
+ -t 1.17445333333333 -s 1 -d 2 -p tcp -e 1000 -c 0 -i 15 -a 0 -x {1.0 5.0 3 ------- null}
+ -t 1.17445333333333 -s 1 -d 2 -p tcp -e 1000 -c 0 -i 16 -a 0 -x {1.0 5.0 4 ------- null}
- -t 1.17845333333333 -s 1 -d 2 -p tcp -e 1000 -c 0 -i 15 -a 0 -x {1.0 5.0 3 ------- null}
h -t 1.17845333333333 -s 1 -d 2 -p tcp -e 1000 -c 0 -i 15 -a 0 -x {1.0 5.0 -1 ------- null}
- -t 1.18210666666667 -s 2 -d 3 -p tcp -e 1040 -c 0 -i 11 -a 0 -x {0.0 4.0 4 ------- null}
h -t 1.18210666666667 -s 2 -d 3 -p tcp -e 1040 -c 0 -i 11 -a 0 -x {0.0 4.0 -1 ------- null}
r -t 1.18210666666667 -s 0 -d 2 -p tcp -e 1040 -c 0 -i 12 -a 0 -x {0.0 4.0 5 ------- null}
+ -t 1.18210666666667 -s 2 -d 3 -p tcp -e 1040 -c 0 -i 12 -a 0 -x {0.0 4.0 5 ------- null}
- -t 1.18245333333333 -s 1 -d 2 -p tcp -e 1000 -c 0 -i 16 -a 0 -x {1.0 5.0 4 ------- null}
h -t 1.18245333333333 -s 1 -d 2 -p tcp -e 1000 -c 0 -i 16 -a 0 -x {1.0 5.0 -1 ------- null}
r -t 1.18626666666667 -s 0 -d 2 -p tcp -e 1040 -c 0 -i 13 -a 0 -x {0.0 4.0 6 ------- null}
+ -t 1.18626666666667 -s 2 -d 3 -p tcp -e 1040 -c 0 -i 13 -a 0 -x {0.0 4.0 6 ------- null}
r -t 1.18845333333333 -s 1 -d 2 -p tcp -e 1000 -c 0 -i 14 -a 0 -x {1.0 5.0 2 ------- null}
+ -t 1.18845333333333 -s 2 -d 3 -p tcp -e 1000 -c 0 -i 14 -a 0 -x {1.0 5.0 2 ------- null}
r -t 1.19245333333333 -s 1 -d 2 -p tcp -e 1000 -c 0 -i 15 -a 0 -x {1.0 5.0 3 ------- null}
+ -t 1.19245333333333 -s 2 -d 3 -p tcp -e 1000 -c 0 -i 15 -a 0 -x {1.0 5.0 3 ------- null}
d -t 1.19245333333333 -s 2 -d 3 -p tcp -e 1000 -c 0 -i 15 -a 0 -x {1.0 5.0 3 ------- null}
r -t 1.19645333333333 -s 1 -d 2 -p tcp -e 1000 -c 0 -i 16 -a 0 -x {1.0 5.0 4 ------- null}
+ -t 1.19645333333333 -s 2 -d 3 -p tcp -e 1000 -c 0 -i 16 -a 0 -x {1.0 5.0 4 ------- null}
d -t 1.19645333333333 -s 2 -d 3 -p tcp -e 1000 -c 0 -i 16 -a 0 -x {1.0 5.0 4 ------- null}
- -t 1.20984 -s 2 -d 3 -p tcp -e 1040 -c 0 -i 12 -a 0 -x {0.0 4.0 5 ------- null}
h -t 1.20984 -s 2 -d 3 -p tcp -e 1040 -c 0 -i 12 -a 0 -x {0.0 4.0 -1 ------- null}
- -t 1.23757333333333 -s 2 -d 3 -p tcp -e 1040 -c 0 -i 13 -a 0 -x {0.0 4.0 6 ------- null}
h -t 1.23757333333333 -s 2 -d 3 -p tcp -e 1040 -c 0 -i 13 -a 0 -x {0.0 4.0 -1 ------- null}
- -t 1.26530666666667 -s 2 -d 3 -p tcp -e 1000 -c 0 -i 14 -a 0 -x {1.0 5.0 2 ------- null}
h -t 1.26530666666667 -s 2 -d 3 -p tcp -e 1000 -c 0 -i 14 -a 0 -x {1.0 5.0 -1 ------- null}
r -t 1.38210666666667 -s 2 -d 3 -p tcp -e 1040 -c 0 -i 10 -a 0 -x {0.0 4.0 3 ------- null}
+ -t 1.38210666666667 -s 3 -d 4 -p tcp -e 1040 -c 0 -i 10 -a 0 -x {0.0 4.0 3 ------- null}
- -t 1.38210666666667 -s 3 -d 4 -p tcp -e 1040 -c 0 -i 10 -a 0 -x {0.0 4.0 3 ------- null}
h -t 1.38210666666667 -s 3 -d 4 -p tcp -e 1040 -c 0 -i 10 -a 0 -x {0.0 4.0 -1 ------- null}
r -t 1.40984 -s 2 -d 3 -p tcp -e 1040 -c 0 -i 11 -a 0 -x {0.0 4.0 4 ------- null}
+ -t 1.40984 -s 3 -d 4 -p tcp -e 1040 -c 0 -i 11 -a 0 -x {0.0 4.0 4 ------- null}
- -t 1.40984 -s 3 -d 4 -p tcp -e 1040 -c 0 -i 11 -a 0 -x {0.0 4.0 4 ------- null}
h -t 1.40984 -s 3 -d 4 -p tcp -e 1040 -c 0 -i 11 -a 0 -x {0.0 4.0 -1 ------- null}
r -t 1.42626666666667 -s 3 -d 4 -p tcp -e 1040 -c 0 -i 10 -a 0 -x {0.0 4.0 3 ------- null}
+ -t 1.42626666666667 -s 4 -d 3 -p ack -e 40 -c 0 -i 17 -a 0 -x {4.0 0.0 3 ------- null}
- -t 1.42626666666667 -s 4 -d 3 -p ack -e 40 -c 0 -i 17 -a 0 -x {4.0 0.0 3 ------- null}
h -t 1.42626666666667 -s 4 -d 3 -p ack -e 40 -c 0 -i 17 -a 0 -x {4.0 0.0 -1 ------- null}
r -t 1.43757333333333 -s 2 -d 3 -p tcp -e 1040 -c 0 -i 12 -a 0 -x {0.0 4.0 5 ------- null}
+ -t 1.43757333333333 -s 3 -d 4 -p tcp -e 1040 -c 0 -i 12 -a 0 -x {0.0 4.0 5 ------- null}
- -t 1.43757333333333 -s 3 -d 4 -p tcp -e 1040 -c 0 -i 12 -a 0 -x {0.0 4.0 5 ------- null}
h -t 1.43757333333333 -s 3 -d 4 -p tcp -e 1040 -c 0 -i 12 -a 0 -x {0.0 4.0 -1 ------- null}
r -t 1.454 -s 3 -d 4 -p tcp -e 1040 -c 0 -i 11 -a 0 -x {0.0 4.0 4 ------- null}
+ -t 1.454 -s 4 -d 3 -p ack -e 40 -c 0 -i 18 -a 0 -x {4.0 0.0 4 ------- null}
- -t 1.454 -s 4 -d 3 -p ack -e 40 -c 0 -i 18 -a 0 -x {4.0 0.0 4 ------- null}
h -t 1.454 -s 4 -d 3 -p ack -e 40 -c 0 -i 18 -a 0 -x {4.0 0.0 -1 ------- null}
r -t 1.46530666666667 -s 2 -d 3 -p tcp -e 1040 -c 0 -i 13 -a 0 -x {0.0 4.0 6 ------- null}
+ -t 1.46530666666667 -s 3 -d 4 -p tcp -e 1040 -c 0 -i 13 -a 0 -x {0.0 4.0 6 ------- null}
- -t 1.46530666666667 -s 3 -d 4 -p tcp -e 1040 -c 0 -i 13 -a 0 -x {0.0 4.0 6 ------- null}
h -t 1.46530666666667 -s 3 -d 4 -p tcp -e 1040 -c 0 -i 13 -a 0 -x {0.0 4.0 -1 ------- null}
r -t 1.46642666666667 -s 4 -d 3 -p ack -e 40 -c 0 -i 17 -a 0 -x {4.0 0.0 3 ------- null}
+ -t 1.46642666666667 -s 3 -d 2 -p ack -e 40 -c 0 -i 17 -a 0 -x {4.0 0.0 3 ------- null}
- -t 1.46642666666667 -s 3 -d 2 -p ack -e 40 -c 0 -i 17 -a 0 -x {4.0 0.0 3 ------- null}
h -t 1.46642666666667 -s 3 -d 2 -p ack -e 40 -c 0 -i 17 -a 0 -x {4.0 0.0 -1 ------- null}
r -t 1.48173333333333 -s 3 -d 4 -p tcp -e 1040 -c 0 -i 12 -a 0 -x {0.0 4.0 5 ------- null}
+ -t 1.48173333333333 -s 4 -d 3 -p ack -e 40 -c 0 -i 19 -a 0 -x {4.0 0.0 5 ------- null}
- -t 1.48173333333333 -s 4 -d 3 -p ack -e 40 -c 0 -i 19 -a 0 -x {4.0 0.0 5 ------- null}
h -t 1.48173333333333 -s 4 -d 3 -p ack -e 40 -c 0 -i 19 -a 0 -x {4.0 0.0 -1 ------- null}
r -t 1.49197333333333 -s 2 -d 3 -p tcp -e 1000 -c 0 -i 14 -a 0 -x {1.0 5.0 2 ------- null}
+ -t 1.49197333333333 -s 3 -d 5 -p tcp -e 1000 -c 0 -i 14 -a 0 -x {1.0 5.0 2 ------- null}
- -t 1.49197333333333 -s 3 -d 5 -p tcp -e 1000 -c 0 -i 14 -a 0 -x {1.0 5.0 2 ------- null}
h -t 1.49197333333333 -s 3 -d 5 -p tcp -e 1000 -c 0 -i 14 -a 0 -x {1.0 5.0 -1 ------- null}
r -t 1.49416 -s 4 -d 3 -p ack -e 40 -c 0 -i 18 -a 0 -x {4.0 0.0 4 ------- null}
+ -t 1.49416 -s 3 -d 2 -p ack -e 40 -c 0 -i 18 -a 0 -x {4.0 0.0 4 ------- null}
- -t 1.49416 -s 3 -d 2 -p ack -e 40 -c 0 -i 18 -a 0 -x {4.0 0.0 4 ------- null}
h -t 1.49416 -s 3 -d 2 -p ack -e 40 -c 0 -i 18 -a 0 -x {4.0 0.0 -1 ------- null}
r -t 1.50946666666667 -s 3 -d 4 -p tcp -e 1040 -c 0 -i 13 -a 0 -x {0.0 4.0 6 ------- null}
+ -t 1.50946666666667 -s 4 -d 3 -p ack -e 40 -c 0 -i 20 -a 0 -x {4.0 0.0 6 ------- null}
- -t 1.50946666666667 -s 4 -d 3 -p ack -e 40 -c 0 -i 20 -a 0 -x {4.0 0.0 6 ------- null}
h -t 1.50946666666667 -s 4 -d 3 -p ack -e 40 -c 0 -i 20 -a 0 -x {4.0 0.0 -1 ------- null}
r -t 1.52189333333333 -s 4 -d 3 -p ack -e 40 -c 0 -i 19 -a 0 -x {4.0 0.0 5 ------- null}
+ -t 1.52189333333333 -s 3 -d 2 -p ack -e 40 -c 0 -i 19 -a 0 -x {4.0 0.0 5 ------- null}
- -t 1.52189333333333 -s 3 -d 2 -p ack -e 40 -c 0 -i 19 -a 0 -x {4.0 0.0 5 ------- null}
h -t 1.52189333333333 -s 3 -d 2 -p ack -e 40 -c 0 -i 19 -a 0 -x {4.0 0.0 -1 ------- null}
r -t 1.52597333333333 -s 3 -d 5 -p tcp -e 1000 -c 0 -i 14 -a 0 -x {1.0 5.0 2 ------- null}
+ -t 1.52597333333333 -s 5 -d 3 -p ack -e 40 -c 0 -i 21 -a 0 -x {5.0 1.0 2 ------- null}
- -t 1.52597333333333 -s 5 -d 3 -p ack -e 40 -c 0 -i 21 -a 0 -x {5.0 1.0 2 ------- null}
h -t 1.52597333333333 -s 5 -d 3 -p ack -e 40 -c 0 -i 21 -a 0 -x {5.0 1.0 -1 ------- null}
r -t 1.54962666666667 -s 4 -d 3 -p ack -e 40 -c 0 -i 20 -a 0 -x {4.0 0.0 6 ------- null}
+ -t 1.54962666666667 -s 3 -d 2 -p ack -e 40 -c 0 -i 20 -a 0 -x {4.0 0.0 6 ------- null}
- -t 1.54962666666667 -s 3 -d 2 -p ack -e 40 -c 0 -i 20 -a 0 -x {4.0 0.0 6 ------- null}
h -t 1.54962666666667 -s 3 -d 2 -p ack -e 40 -c 0 -i 20 -a 0 -x {4.0 0.0 -1 ------- null}
r -t 1.55613333333333 -s 5 -d 3 -p ack -e 40 -c 0 -i 21 -a 0 -x {5.0 1.0 2 ------- null}
+ -t 1.55613333333333 -s 3 -d 2 -p ack -e 40 -c 0 -i 21 -a 0 -x {5.0 1.0 2 ------- null}
- -t 1.55613333333333 -s 3 -d 2 -p ack -e 40 -c 0 -i 21 -a 0 -x {5.0 1.0 2 ------- null}
h -t 1.55613333333333 -s 3 -d 2 -p ack -e 40 -c 0 -i 21 -a 0 -x {5.0 1.0 -1 ------- null}
r -t 1.66749333333333 -s 3 -d 2 -p ack -e 40 -c 0 -i 17 -a 0 -x {4.0 0.0 3 ------- null}
+ -t 1.66749333333333 -s 2 -d 0 -p ack -e 40 -c 0 -i 17 -a 0 -x {4.0 0.0 3 ------- null}
- -t 1.66749333333333 -s 2 -d 0 -p ack -e 40 -c 0 -i 17 -a 0 -x {4.0 0.0 3 ------- null}
h -t 1.66749333333333 -s 2 -d 0 -p ack -e 40 -c 0 -i 17 -a 0 -x {4.0 0.0 -1 ------- null}
r -t 1.67765333333333 -s 2 -d 0 -p ack -e 40 -c 0 -i 17 -a 0 -x {4.0 0.0 3 ------- null}
+ -t 1.67765333333333 -s 0 -d 2 -p tcp -e 1040 -c 0 -i 22 -a 0 -x {0.0 4.0 7 ------- null}
- -t 1.67765333333333 -s 0 -d 2 -p tcp -e 1040 -c 0 -i 22 -a 0 -x {0.0 4.0 7 ------- null}
h -t 1.67765333333333 -s 0 -d 2 -p tcp -e 1040 -c 0 -i 22 -a 0 -x {0.0 4.0 -1 ------- null}
+ -t 1.67765333333333 -s 0 -d 2 -p tcp -e 1040 -c 0 -i 23 -a 0 -x {0.0 4.0 8 ------- null}
- -t 1.68181333333333 -s 0 -d 2 -p tcp -e 1040 -c 0 -i 23 -a 0 -x {0.0 4.0 8 ------- null}
h -t 1.68181333333333 -s 0 -d 2 -p tcp -e 1040 -c 0 -i 23 -a 0 -x {0.0 4.0 -1 ------- null}
r -t 1.69181333333333 -s 0 -d 2 -p tcp -e 1040 -c 0 -i 22 -a 0 -x {0.0 4.0 7 ------- null}
+ -t 1.69181333333333 -s 2 -d 3 -p tcp -e 1040 -c 0 -i 22 -a 0 -x {0.0 4.0 7 ------- null}
- -t 1.69181333333333 -s 2 -d 3 -p tcp -e 1040 -c 0 -i 22 -a 0 -x {0.0 4.0 7 ------- null}
h -t 1.69181333333333 -s 2 -d 3 -p tcp -e 1040 -c 0 -i 22 -a 0 -x {0.0 4.0 -1 ------- null}
r -t 1.69522666666667 -s 3 -d 2 -p ack -e 40 -c 0 -i 18 -a 0 -x {4.0 0.0 4 ------- null}
+ -t 1.69522666666667 -s 2 -d 0 -p ack -e 40 -c 0 -i 18 -a 0 -x {4.0 0.0 4 ------- null}
- -t 1.69522666666667 -s 2 -d 0 -p ack -e 40 -c 0 -i 18 -a 0 -x {4.0 0.0 4 ------- null}
h -t 1.69522666666667 -s 2 -d 0 -p ack -e 40 -c 0 -i 18 -a 0 -x {4.0 0.0 -1 ------- null}
r -t 1.69597333333333 -s 0 -d 2 -p tcp -e 1040 -c 0 -i 23 -a 0 -x {0.0 4.0 8 ------- null}
+ -t 1.69597333333333 -s 2 -d 3 -p tcp -e 1040 -c 0 -i 23 -a 0 -x {0.0 4.0 8 ------- null}
r -t 1.70538666666667 -s 2 -d 0 -p ack -e 40 -c 0 -i 18 -a 0 -x {4.0 0.0 4 ------- null}
+ -t 1.70538666666667 -s 0 -d 2 -p tcp -e 1040 -c 0 -i 24 -a 0 -x {0.0 4.0 9 ------- null}
- -t 1.70538666666667 -s 0 -d 2 -p tcp -e 1040 -c 0 -i 24 -a 0 -x {0.0 4.0 9 ------- null}
h -t 1.70538666666667 -s 0 -d 2 -p tcp -e 1040 -c 0 -i 24 -a 0 -x {0.0 4.0 -1 ------- null}
+ -t 1.70538666666667 -s 0 -d 2 -p tcp -e 1040 -c 0 -i 25 -a 0 -x {0.0 4.0 10 ------- null}
- -t 1.70954666666667 -s 0 -d 2 -p tcp -e 1040 -c 0 -i 25 -a 0 -x {0.0 4.0 10 ------- null}
h -t 1.70954666666667 -s 0 -d 2 -p tcp -e 1040 -c 0 -i 25 -a 0 -x {0.0 4.0 -1 ------- null}
- -t 1.71954666666667 -s 2 -d 3 -p tcp -e 1040 -c 0 -i 23 -a 0 -x {0.0 4.0 8 ------- null}
h -t 1.71954666666667 -s 2 -d 3 -p tcp -e 1040 -c 0 -i 23 -a 0 -x {0.0 4.0 -1 ------- null}
r -t 1.71954666666667 -s 0 -d 2 -p tcp -e 1040 -c 0 -i 24 -a 0 -x {0.0 4.0 9 ------- null}
+ -t 1.71954666666667 -s 2 -d 3 -p tcp -e 1040 -c 0 -i 24 -a 0 -x {0.0 4.0 9 ------- null}
r -t 1.72296 -s 3 -d 2 -p ack -e 40 -c 0 -i 19 -a 0 -x {4.0 0.0 5 ------- null}
+ -t 1.72296 -s 2 -d 0 -p ack -e 40 -c 0 -i 19 -a 0 -x {4.0 0.0 5 ------- null}
- -t 1.72296 -s 2 -d 0 -p ack -e 40 -c 0 -i 19 -a 0 -x {4.0 0.0 5 ------- null}
h -t 1.72296 -s 2 -d 0 -p ack -e 40 -c 0 -i 19 -a 0 -x {4.0 0.0 -1 ------- null}
r -t 1.72370666666667 -s 0 -d 2 -p tcp -e 1040 -c 0 -i 25 -a 0 -x {0.0 4.0 10 ------- null}
+ -t 1.72370666666667 -s 2 -d 3 -p tcp -e 1040 -c 0 -i 25 -a 0 -x {0.0 4.0 10 ------- null}
r -t 1.73312 -s 2 -d 0 -p ack -e 40 -c 0 -i 19 -a 0 -x {4.0 0.0 5 ------- null}
+ -t 1.73312 -s 0 -d 2 -p tcp -e 1040 -c 0 -i 26 -a 0 -x {0.0 4.0 11 ------- null}
- -t 1.73312 -s 0 -d 2 -p tcp -e 1040 -c 0 -i 26 -a 0 -x {0.0 4.0 11 ------- null}
h -t 1.73312 -s 0 -d 2 -p tcp -e 1040 -c 0 -i 26 -a 0 -x {0.0 4.0 -1 ------- null}
+ -t 1.73312 -s 0 -d 2 -p tcp -e 1040 -c 0 -i 27 -a 0 -x {0.0 4.0 12 ------- null}
- -t 1.73728 -s 0 -d 2 -p tcp -e 1040 -c 0 -i 27 -a 0 -x {0.0 4.0 12 ------- null}
h -t 1.73728 -s 0 -d 2 -p tcp -e 1040 -c 0 -i 27 -a 0 -x {0.0 4.0 -1 ------- null}
- -t 1.74728 -s 2 -d 3 -p tcp -e 1040 -c 0 -i 24 -a 0 -x {0.0 4.0 9 ------- null}
h -t 1.74728 -s 2 -d 3 -p tcp -e 1040 -c 0 -i 24 -a 0 -x {0.0 4.0 -1 ------- null}
r -t 1.74728 -s 0 -d 2 -p tcp -e 1040 -c 0 -i 26 -a 0 -x {0.0 4.0 11 ------- null}
+ -t 1.74728 -s 2 -d 3 -p tcp -e 1040 -c 0 -i 26 -a 0 -x {0.0 4.0 11 ------- null}
r -t 1.75069333333333 -s 3 -d 2 -p ack -e 40 -c 0 -i 20 -a 0 -x {4.0 0.0 6 ------- null}
+ -t 1.75069333333333 -s 2 -d 0 -p ack -e 40 -c 0 -i 20 -a 0 -x {4.0 0.0 6 ------- null}
- -t 1.75069333333333 -s 2 -d 0 -p ack -e 40 -c 0 -i 20 -a 0 -x {4.0 0.0 6 ------- null}
h -t 1.75069333333333 -s 2 -d 0 -p ack -e 40 -c 0 -i 20 -a 0 -x {4.0 0.0 -1 ------- null}
r -t 1.75144 -s 0 -d 2 -p tcp -e 1040 -c 0 -i 27 -a 0 -x {0.0 4.0 12 ------- null}
+ -t 1.75144 -s 2 -d 3 -p tcp -e 1040 -c 0 -i 27 -a 0 -x {0.0 4.0 12 ------- null}
r -t 1.7572 -s 3 -d 2 -p ack -e 40 -c 0 -i 21 -a 0 -x {5.0 1.0 2 ------- null}
+ -t 1.7572 -s 2 -d 1 -p ack -e 40 -c 0 -i 21 -a 0 -x {5.0 1.0 2 ------- null}
- -t 1.7572 -s 2 -d 1 -p ack -e 40 -c 0 -i 21 -a 0 -x {5.0 1.0 2 ------- null}
h -t 1.7572 -s 2 -d 1 -p ack -e 40 -c 0 -i 21 -a 0 -x {5.0 1.0 -1 ------- null}
r -t 1.76085333333333 -s 2 -d 0 -p ack -e 40 -c 0 -i 20 -a 0 -x {4.0 0.0 6 ------- null}
+ -t 1.76085333333333 -s 0 -d 2 -p tcp -e 1040 -c 0 -i 28 -a 0 -x {0.0 4.0 13 ------- null}
- -t 1.76085333333333 -s 0 -d 2 -p tcp -e 1040 -c 0 -i 28 -a 0 -x {0.0 4.0 13 ------- null}
h -t 1.76085333333333 -s 0 -d 2 -p tcp -e 1040 -c 0 -i 28 -a 0 -x {0.0 4.0 -1 ------- null}
+ -t 1.76085333333333 -s 0 -d 2 -p tcp -e 1040 -c 0 -i 29 -a 0 -x {0.0 4.0 14 ------- null}
- -t 1.76501333333333 -s 0 -d 2 -p tcp -e 1040 -c 0 -i 29 -a 0 -x {0.0 4.0 14 ------- null}
h -t 1.76501333333333 -s 0 -d 2 -p tcp -e 1040 -c 0 -i 29 -a 0 -x {0.0 4.0 -1 ------- null}
r -t 1.76736 -s 2 -d 1 -p ack -e 40 -c 0 -i 21 -a 0 -x {5.0 1.0 2 ------- null}
+ -t 1.76736 -s 1 -d 2 -p tcp -e 1000 -c 0 -i 30 -a 0 -x {1.0 5.0 5 ------- null}
- -t 1.76736 -s 1 -d 2 -p tcp -e 1000 -c 0 -i 30 -a 0 -x {1.0 5.0 5 ------- null}
h -t 1.76736 -s 1 -d 2 -p tcp -e 1000 -c 0 -i 30 -a 0 -x {1.0 5.0 -1 ------- null}
- -t 1.77501333333333 -s 2 -d 3 -p tcp -e 1040 -c 0 -i 25 -a 0 -x {0.0 4.0 10 ------- null}
h -t 1.77501333333333 -s 2 -d 3 -p tcp -e 1040 -c 0 -i 25 -a 0 -x {0.0 4.0 -1 ------- null}
r -t 1.77501333333333 -s 0 -d 2 -p tcp -e 1040 -c 0 -i 28 -a 0 -x {0.0 4.0 13 ------- null}
+ -t 1.77501333333333 -s 2 -d 3 -p tcp -e 1040 -c 0 -i 28 -a 0 -x {0.0 4.0 13 ------- null}
r -t 1.77917333333333 -s 0 -d 2 -p tcp -e 1040 -c 0 -i 29 -a 0 -x {0.0 4.0 14 ------- null}
+ -t 1.77917333333333 -s 2 -d 3 -p tcp -e 1040 -c 0 -i 29 -a 0 -x {0.0 4.0 14 ------- null}
d -t 1.77917333333333 -s 2 -d 3 -p tcp -e 1040 -c 0 -i 29 -a 0 -x {0.0 4.0 14 ------- null}
r -t 1.78136 -s 1 -d 2 -p tcp -e 1000 -c 0 -i 30 -a 0 -x {1.0 5.0 5 ------- null}
+ -t 1.78136 -s 2 -d 3 -p tcp -e 1000 -c 0 -i 30 -a 0 -x {1.0 5.0 5 ------- null}
d -t 1.78136 -s 2 -d 3 -p tcp -e 1000 -c 0 -i 30 -a 0 -x {1.0 5.0 5 ------- null}
- -t 1.80274666666667 -s 2 -d 3 -p tcp -e 1040 -c 0 -i 26 -a 0 -x {0.0 4.0 11 ------- null}
h -t 1.80274666666667 -s 2 -d 3 -p tcp -e 1040 -c 0 -i 26 -a 0 -x {0.0 4.0 -1 ------- null}
- -t 1.83048 -s 2 -d 3 -p tcp -e 1040 -c 0 -i 27 -a 0 -x {0.0 4.0 12 ------- null}
h -t 1.83048 -s 2 -d 3 -p tcp -e 1040 -c 0 -i 27 -a 0 -x {0.0 4.0 -1 ------- null}
- -t 1.85821333333333 -s 2 -d 3 -p tcp -e 1040 -c 0 -i 28 -a 0 -x {0.0 4.0 13 ------- null}
h -t 1.85821333333333 -s 2 -d 3 -p tcp -e 1040 -c 0 -i 28 -a 0 -x {0.0 4.0 -1 ------- null}
r -t 1.91954666666667 -s 2 -d 3 -p tcp -e 1040 -c 0 -i 22 -a 0 -x {0.0 4.0 7 ------- null}
+ -t 1.91954666666667 -s 3 -d 4 -p tcp -e 1040 -c 0 -i 22 -a 0 -x {0.0 4.0 7 ------- null}
- -t 1.91954666666667 -s 3 -d 4 -p tcp -e 1040 -c 0 -i 22 -a 0 -x {0.0 4.0 7 ------- null}
h -t 1.91954666666667 -s 3 -d 4 -p tcp -e 1040 -c 0 -i 22 -a 0 -x {0.0 4.0 -1 ------- null}
r -t 1.94728 -s 2 -d 3 -p tcp -e 1040 -c 0 -i 23 -a 0 -x {0.0 4.0 8 ------- null}
+ -t 1.94728 -s 3 -d 4 -p tcp -e 1040 -c 0 -i 23 -a 0 -x {0.0 4.0 8 ------- null}
- -t 1.94728 -s 3 -d 4 -p tcp -e 1040 -c 0 -i 23 -a 0 -x {0.0 4.0 8 ------- null}
h -t 1.94728 -s 3 -d 4 -p tcp -e 1040 -c 0 -i 23 -a 0 -x {0.0 4.0 -1 ------- null}
r -t 1.96370666666667 -s 3 -d 4 -p tcp -e 1040 -c 0 -i 22 -a 0 -x {0.0 4.0 7 ------- null}
+ -t 1.96370666666667 -s 4 -d 3 -p ack -e 40 -c 0 -i 31 -a 0 -x {4.0 0.0 7 ------- null}
- -t 1.96370666666667 -s 4 -d 3 -p ack -e 40 -c 0 -i 31 -a 0 -x {4.0 0.0 7 ------- null}
h -t 1.96370666666667 -s 4 -d 3 -p ack -e 40 -c 0 -i 31 -a 0 -x {4.0 0.0 -1 ------- null}
r -t 1.97501333333333 -s 2 -d 3 -p tcp -e 1040 -c 0 -i 24 -a 0 -x {0.0 4.0 9 ------- null}
+ -t 1.97501333333333 -s 3 -d 4 -p tcp -e 1040 -c 0 -i 24 -a 0 -x {0.0 4.0 9 ------- null}
- -t 1.97501333333333 -s 3 -d 4 -p tcp -e 1040 -c 0 -i 24 -a 0 -x {0.0 4.0 9 ------- null}
h -t 1.97501333333333 -s 3 -d 4 -p tcp -e 1040 -c 0 -i 24 -a 0 -x {0.0 4.0 -1 ------- null}
r -t 1.99144 -s 3 -d 4 -p tcp -e 1040 -c 0 -i 23 -a 0 -x {0.0 4.0 8 ------- null}
+ -t 1.99144 -s 4 -d 3 -p ack -e 40 -c 0 -i 32 -a 0 -x {4.0 0.0 8 ------- null}
- -t 1.99144 -s 4 -d 3 -p ack -e 40 -c 0 -i 32 -a 0 -x {4.0 0.0 8 ------- null}