+ 0.5 0 2 tcp 40 ------- 1 0.0 4.0 0 0
- 0.5 0 2 tcp 40 ------- 1 0.0 4.0 0 0
r 0.51032 0 2 tcp 40 ------- 1 0.0 4.0 0 0
+ 0.5616 0 2 tcp 1040 ------- 1 0.0 4.0 1 2
- 0.5616 0 2 tcp 1040 ------- 1 0.0 4.0 1 2
+ 0.5616 0 2 tcp 1040 ------- 1 0.0 4.0 2 3
- 0.56992 0 2 tcp 1040 ------- 1 0.0 4.0 2 3
r 0.57992 0 2 tcp 1040 ------- 1 0.0 4.0 1 2
r 0.58824 0 2 tcp 1040 ------- 1 0.0 4.0 2 3
+ 0.6432 0 2 tcp 1040 ------- 1 0.0 4.0 3 6
- 0.6432 0 2 tcp 1040 ------- 1 0.0 4.0 3 6
+ 0.6432 0 2 tcp 1040 ------- 1 0.0 4.0 4 7
+ 0.65152 0 2 tcp 1040 ------- 1 0.0 4.0 5 8
+ 0.65152 0 2 tcp 1040 ------- 1 0.0 4.0 6 9
- 0.65152 0 2 tcp 1040 ------- 1 0.0 4.0 4 7
- 0.65984 0 2 tcp 1040 ------- 1 0.0 4.0 5 8
r 0.66152 0 2 tcp 1040 ------- 1 0.0 4.0 3 6
- 0.66816 0 2 tcp 1040 ------- 1 0.0 4.0 6 9
r 0.66984 0 2 tcp 1040 ------- 1 0.0 4.0 4 7
r 0.67816 0 2 tcp 1040 ------- 1 0.0 4.0 5 8
r 0.68648 0 2 tcp 1040 ------- 1 0.0 4.0 6 9
+ 0.7248 0 2 tcp 1040 ------- 1 0.0 4.0 7 14
- 0.7248 0 2 tcp 1040 ------- 1 0.0 4.0 7 14
+ 0.7248 0 2 tcp 1040 ------- 1 0.0 4.0 8 15
+ 0.73312 0 2 tcp 1040 ------- 1 0.0 4.0 9 16
+ 0.73312 0 2 tcp 1040 ------- 1 0.0 4.0 10 17
- 0.73312 0 2 tcp 1040 ------- 1 0.0 4.0 8 15
+ 0.74144 0 2 tcp 1040 ------- 1 0.0 4.0 11 18
+ 0.74144 0 2 tcp 1040 ------- 1 0.0 4.0 12 19
- 0.74144 0 2 tcp 1040 ------- 1 0.0 4.0 9 16
r 0.74312 0 2 tcp 1040 ------- 1 0.0 4.0 7 14
+ 0.74976 0 2 tcp 1040 ------- 1 0.0 4.0 13 20
+ 0.74976 0 2 tcp 1040 ------- 1 0.0 4.0 14 21
- 0.74976 0 2 tcp 1040 ------- 1 0.0 4.0 10 17
r 0.75144 0 2 tcp 1040 ------- 1 0.0 4.0 8 15
- 0.75808 0 2 tcp 1040 ------- 1 0.0 4.0 11 18
r 0.75976 0 2 tcp 1040 ------- 1 0.0 4.0 9 16
- 0.7664 0 2 tcp 1040 ------- 1 0.0 4.0 12 19
r 0.76808 0 2 tcp 1040 ------- 1 0.0 4.0 10 17
- 0.77472 0 2 tcp 1040 ------- 1 0.0 4.0 13 20
r 0.7764 0 2 tcp 1040 ------- 1 0.0 4.0 11 18
- 0.78304 0 2 tcp 1040 ------- 1 0.0 4.0 14 21
r 0.78472 0 2 tcp 1040 ------- 1 0.0 4.0 12 19
r 0.79304 0 2 tcp 1040 ------- 1 0.0 4.0 13 20
r 0.80136 0 2 tcp 1040 ------- 1 0.0 4.0 14 21
+ 0.8064 0 2 tcp 1040 ------- 1 0.0 4.0 15 26
- 0.8064 0 2 tcp 1040 ------- 1 0.0 4.0 15 26
+ 0.8064 0 2 tcp 1040 ------- 1 0.0 4.0 16 27
+ 0.81472 0 2 tcp 1040 ------- 1 0.0 4.0 17 29
+ 0.81472 0 2 tcp 1040 ------- 1 0.0 4.0 18 30
- 0.81472 0 2 tcp 1040 ------- 1 0.0 4.0 16 27
+ 0.82304 0 2 tcp 1040 ------- 1 0.0 4.0 19 32
+ 0.82304 0 2 tcp 1040 ------- 1 0.0 4.0 20 33
- 0.82304 0 2 tcp 1040 ------- 1 0.0 4.0 17 29
r 0.82472 0 2 tcp 1040 ------- 1 0.0 4.0 15 26
+ 0.83136 0 2 tcp 1040 ------- 1 0.0 4.0 21 35
+ 0.83136 0 2 tcp 1040 ------- 1 0.0 4.0 22 36
- 0.83136 0 2 tcp 1040 ------- 1 0.0 4.0 18 30
r 0.83304 0 2 tcp 1040 ------- 1 0.0 4.0 16 27
+ 0.83968 0 2 tcp 1040 ------- 1 0.0 4.0 23 38
+ 0.83968 0 2 tcp 1040 ------- 1 0.0 4.0 24 39
- 0.83968 0 2 tcp 1040 ------- 1 0.0 4.0 19 32
r 0.84136 0 2 tcp 1040 ------- 1 0.0 4.0 17 29
+ 0.848 0 2 tcp 1040 ------- 1 0.0 4.0 25 40
+ 0.848 0 2 tcp 1040 ------- 1 0.0 4.0 26 41
- 0.848 0 2 tcp 1040 ------- 1 0.0 4.0 20 33
r 0.84968 0 2 tcp 1040 ------- 1 0.0 4.0 18 30
+ 0.85632 0 2 tcp 1040 ------- 1 0.0 4.0 27 42
+ 0.85632 0 2 tcp 1040 ------- 1 0.0 4.0 28 43
- 0.85632 0 2 tcp 1040 ------- 1 0.0 4.0 21 35
r 0.858 0 2 tcp 1040 ------- 1 0.0 4.0 19 32
+ 0.86464 0 2 tcp 1040 ------- 1 0.0 4.0 29 45
+ 0.86464 0 2 tcp 1040 ------- 1 0.0 4.0 30 46
- 0.86464 0 2 tcp 1040 ------- 1 0.0 4.0 22 36
r 0.86632 0 2 tcp 1040 ------- 1 0.0 4.0 20 33
- 0.87296 0 2 tcp 1040 ------- 1 0.0 4.0 23 38
r 0.87464 0 2 tcp 1040 ------- 1 0.0 4.0 21 35
- 0.88128 0 2 tcp 1040 ------- 1 0.0 4.0 24 39
r 0.88296 0 2 tcp 1040 ------- 1 0.0 4.0 22 36
+ 0.888 0 2 tcp 1040 ------- 1 0.0 4.0 31 50
+ 0.888 0 2 tcp 1040 ------- 1 0.0 4.0 32 51
- 0.8896 0 2 tcp 1040 ------- 1 0.0 4.0 25 40
r 0.89128 0 2 tcp 1040 ------- 1 0.0 4.0 23 38
+ 0.89632 0 2 tcp 1040 ------- 1 0.0 4.0 33 53
+ 0.89632 0 2 tcp 1040 ------- 1 0.0 4.0 34 54
- 0.89792 0 2 tcp 1040 ------- 1 0.0 4.0 26 41
r 0.8996 0 2 tcp 1040 ------- 1 0.0 4.0 24 39
+ 0.90464 0 2 tcp 1040 ------- 1 0.0 4.0 35 56
+ 0.90464 0 2 tcp 1040 ------- 1 0.0 4.0 36 57
- 0.90624 0 2 tcp 1040 ------- 1 0.0 4.0 27 42
r 0.90792 0 2 tcp 1040 ------- 1 0.0 4.0 25 40
+ 0.91296 0 2 tcp 1040 ------- 1 0.0 4.0 37 59
+ 0.91296 0 2 tcp 1040 ------- 1 0.0 4.0 38 60
- 0.91456 0 2 tcp 1040 ------- 1 0.0 4.0 28 43
r 0.91624 0 2 tcp 1040 ------- 1 0.0 4.0 26 41
+ 0.92128 0 2 tcp 1040 ------- 1 0.0 4.0 39 62
- 0.92288 0 2 tcp 1040 ------- 1 0.0 4.0 29 45
r 0.92456 0 2 tcp 1040 ------- 1 0.0 4.0 27 42
+ 0.9296 0 2 tcp 1040 ------- 1 0.0 4.0 40 64
- 0.9312 0 2 tcp 1040 ------- 1 0.0 4.0 30 46
r 0.93288 0 2 tcp 1040 ------- 1 0.0 4.0 28 43
+ 0.93792 0 2 tcp 1040 ------- 1 0.0 4.0 41 66
- 0.93952 0 2 tcp 1040 ------- 1 0.0 4.0 31 50
r 0.9412 0 2 tcp 1040 ------- 1 0.0 4.0 29 45
+ 0.94624 0 2 tcp 1040 ------- 1 0.0 4.0 42 68
- 0.94784 0 2 tcp 1040 ------- 1 0.0 4.0 32 51
r 0.94952 0 2 tcp 1040 ------- 1 0.0 4.0 30 46
+ 0.95456 0 2 tcp 1040 ------- 1 0.0 4.0 43 70
- 0.95616 0 2 tcp 1040 ------- 1 0.0 4.0 33 53
r 0.95784 0 2 tcp 1040 ------- 1 0.0 4.0 31 50
+ 0.96288 0 2 tcp 1040 ------- 1 0.0 4.0 44 72
- 0.96448 0 2 tcp 1040 ------- 1 0.0 4.0 34 54
r 0.96616 0 2 tcp 1040 ------- 1 0.0 4.0 32 51
+ 0.9712 0 2 tcp 1040 ------- 1 0.0 4.0 45 74
- 0.9728 0 2 tcp 1040 ------- 1 0.0 4.0 35 56
r 0.97448 0 2 tcp 1040 ------- 1 0.0 4.0 33 53
+ 0.97952 0 2 tcp 1040 ------- 1 0.0 4.0 46 76
- 0.98112 0 2 tcp 1040 ------- 1 0.0 4.0 36 57
r 0.9828 0 2 tcp 1040 ------- 1 0.0 4.0 34 54
+ 0.98784 0 2 tcp 1040 ------- 1 0.0 4.0 47 78
- 0.98944 0 2 tcp 1040 ------- 1 0.0 4.0 37 59
r 0.99112 0 2 tcp 1040 ------- 1 0.0 4.0 35 56
+ 0.99616 0 2 tcp 1040 ------- 1 0.0 4.0 48 80
- 0.99776 0 2 tcp 1040 ------- 1 0.0 4.0 38 60
r 0.99944 0 2 tcp 1040 ------- 1 0.0 4.0 36 57
+ 1.00448 0 2 tcp 1040 ------- 1 0.0 4.0 49 83
- 1.00608 0 2 tcp 1040 ------- 1 0.0 4.0 39 62
r 1.00776 0 2 tcp 1040 ------- 1 0.0 4.0 37 59
+ 1.0128 0 2 tcp 1040 ------- 1 0.0 4.0 50 86
- 1.0144 0 2 tcp 1040 ------- 1 0.0 4.0 40 64
r 1.01608 0 2 tcp 1040 ------- 1 0.0 4.0 38 60
+ 1.02112 0 2 tcp 1040 ------- 1 0.0 4.0 51 89
- 1.02272 0 2 tcp 1040 ------- 1 0.0 4.0 41 66
r 1.0244 0 2 tcp 1040 ------- 1 0.0 4.0 39 62
+ 1.02944 0 2 tcp 1040 ------- 1 0.0 4.0 52 92
- 1.03104 0 2 tcp 1040 ------- 1 0.0 4.0 42 68
r 1.03272 0 2 tcp 1040 ------- 1 0.0 4.0 40 64
+ 1.03776 0 2 tcp 1040 ------- 1 0.0 4.0 53 95
- 1.03936 0 2 tcp 1040 ------- 1 0.0 4.0 43 70
r 1.04104 0 2 tcp 1040 ------- 1 0.0 4.0 41 66
+ 1.04608 0 2 tcp 1040 ------- 1 0.0 4.0 54 98
- 1.04768 0 2 tcp 1040 ------- 1 0.0 4.0 44 72
r 1.04936 0 2 tcp 1040 ------- 1 0.0 4.0 42 68
+ 1.0544 0 2 tcp 1040 ------- 1 0.0 4.0 55 101
- 1.056 0 2 tcp 1040 ------- 1 0.0 4.0 45 74
r 1.05768 0 2 tcp 1040 ------- 1 0.0 4.0 43 70
+ 1.06272 0 2 tcp 1040 ------- 1 0.0 4.0 56 103
- 1.06432 0 2 tcp 1040 ------- 1 0.0 4.0 46 76
r 1.066 0 2 tcp 1040 ------- 1 0.0 4.0 44 72
+ 1.07104 0 2 tcp 1040 ------- 1 0.0 4.0 57 106
- 1.07264 0 2 tcp 1040 ------- 1 0.0 4.0 47 78
r 1.07432 0 2 tcp 1040 ------- 1 0.0 4.0 45 74
+ 1.07936 0 2 tcp 1040 ------- 1 0.0 4.0 58 108
- 1.08096 0 2 tcp 1040 ------- 1 0.0 4.0 48 80
r 1.08264 0 2 tcp 1040 ------- 1 0.0 4.0 46 76
- 1.08928 0 2 tcp 1040 ------- 1 0.0 4.0 49 83
r 1.09096 0 2 tcp 1040 ------- 1 0.0 4.0 47 78
+ 1.09568 0 2 tcp 1040 ------- 1 0.0 4.0 59 112
- 1.0976 0 2 tcp 1040 ------- 1 0.0 4.0 50 86
r 1.09928 0 2 tcp 1040 ------- 1 0.0 4.0 48 80
- 1.10592 0 2 tcp 1040 ------- 1 0.0 4.0 51 89
r 1.1076 0 2 tcp 1040 ------- 1 0.0 4.0 49 83
+ 1.112 0 2 tcp 1040 ------- 1 0.0 4.0 60 116
- 1.11424 0 2 tcp 1040 ------- 1 0.0 4.0 52 92
r 1.11592 0 2 tcp 1040 ------- 1 0.0 4.0 50 86
- 1.12256 0 2 tcp 1040 ------- 1 0.0 4.0 53 95
r 1.12424 0 2 tcp 1040 ------- 1 0.0 4.0 51 89
+ 1.12832 0 2 tcp 1040 ------- 1 0.0 4.0 61 121
- 1.13088 0 2 tcp 1040 ------- 1 0.0 4.0 54 98
r 1.13256 0 2 tcp 1040 ------- 1 0.0 4.0 52 92
- 1.1392 0 2 tcp 1040 ------- 1 0.0 4.0 55 101
r 1.14088 0 2 tcp 1040 ------- 1 0.0 4.0 53 95
+ 1.14464 0 2 tcp 1040 ------- 1 0.0 4.0 62 125
- 1.14752 0 2 tcp 1040 ------- 1 0.0 4.0 56 103
r 1.1492 0 2 tcp 1040 ------- 1 0.0 4.0 54 98
- 1.15584 0 2 tcp 1040 ------- 1 0.0 4.0 57 106
r 1.15752 0 2 tcp 1040 ------- 1 0.0 4.0 55 101
+ 1.16096 0 2 tcp 1040 ------- 1 0.0 4.0 63 129
- 1.16416 0 2 tcp 1040 ------- 1 0.0 4.0 58 108
r 1.16584 0 2 tcp 1040 ------- 1 0.0 4.0 56 103
- 1.17248 0 2 tcp 1040 ------- 1 0.0 4.0 59 112
r 1.17416 0 2 tcp 1040 ------- 1 0.0 4.0 57 106
+ 1.17728 0 2 tcp 1040 ------- 1 0.0 4.0 64 133
- 1.1808 0 2 tcp 1040 ------- 1 0.0 4.0 60 116
r 1.18248 0 2 tcp 1040 ------- 1 0.0 4.0 58 108
- 1.18912 0 2 tcp 1040 ------- 1 0.0 4.0 61 121
r 1.1908 0 2 tcp 1040 ------- 1 0.0 4.0 59 112
- 1.19744 0 2 tcp 1040 ------- 1 0.0 4.0 62 125
r 1.19912 0 2 tcp 1040 ------- 1 0.0 4.0 60 116
+ 1.2016 0 2 tcp 1040 ------- 1 0.0 4.0 65 138
- 1.20576 0 2 tcp 1040 ------- 1 0.0 4.0 63 129
r 1.20744 0 2 tcp 1040 ------- 1 0.0 4.0 61 121
- 1.21408 0 2 tcp 1040 ------- 1 0.0 4.0 64 133
r 1.21576 0 2 tcp 1040 ------- 1 0.0 4.0 62 125
+ 1.21792 0 2 tcp 1040 ------- 1 0.0 4.0 66 142
- 1.2224 0 2 tcp 1040 ------- 1 0.0 4.0 65 138
r 1.22408 0 2 tcp 1040 ------- 1 0.0 4.0 63 129
- 1.23072 0 2 tcp 1040 ------- 1 0.0 4.0 66 142
r 1.2324 0 2 tcp 1040 ------- 1 0.0 4.0 64 133
r 1.24072 0 2 tcp 1040 ------- 1 0.0 4.0 65 138
r 1.24904 0 2 tcp 1040 ------- 1 0.0 4.0 66 142
+ 1.25888 0 2 tcp 1040 ---A--- 1 0.0 4.0 47 153
- 1.25888 0 2 tcp 1040 ---A--- 1 0.0 4.0 47 153
r 1.2772 0 2 tcp 1040 ---A--- 1 0.0 4.0 47 153
+ 1.47888 0 2 tcp 1040 ---A--- 1 0.0 4.0 47 193
- 1.47888 0 2 tcp 1040 ---A--- 1 0.0 4.0 47 193
r 1.4972 0 2 tcp 1040 ---A--- 1 0.0 4.0 47 193
+ 1.632 0 2 tcp 1040 ------- 1 0.0 4.0 48 215
- 1.632 0 2 tcp 1040 ------- 1 0.0 4.0 48 215
+ 1.632 0 2 tcp 1040 ------- 1 0.0 4.0 49 216
- 1.64032 0 2 tcp 1040 ------- 1 0.0 4.0 49 216
r 1.65032 0 2 tcp 1040 ------- 1 0.0 4.0 48 215
r 1.65864 0 2 tcp 1040 ------- 1 0.0 4.0 49 216
+ 2.072 0 2 tcp 1040 ---A--- 1 0.0 4.0 48 272
- 2.072 0 2 tcp 1040 ---A--- 1 0.0 4.0 48 272
r 2.09032 0 2 tcp 1040 ---A--- 1 0.0 4.0 48 272
+ 2.952 0 2 tcp 1040 ---A--- 1 0.0 4.0 48 383
- 2.952 0 2 tcp 1040 ---A--- 1 0.0 4.0 48 383
r 2.97032 0 2 tcp 1040 ---A--- 1 0.0 4.0 48 383
+ 4.712 0 2 tcp 1040 ---A--- 1 0.0 4.0 48 452
- 4.712 0 2 tcp 1040 ---A--- 1 0.0 4.0 48 452
r 4.73032 0 2 tcp 1040 ---A--- 1 0.0 4.0 48 452
+ 4.7936 0 2 tcp 1040 ------- 1 0.0 4.0 67 454
- 4.7936 0 2 tcp 1040 ------- 1 0.0 4.0 67 454
+ 4.7936 0 2 tcp 1040 ------- 1 0.0 4.0 68 455
- 4.80192 0 2 tcp 1040 ------- 1 0.0 4.0 68 455
r 4.81192 0 2 tcp 1040 ------- 1 0.0 4.0 67 454
r 4.82024 0 2 tcp 1040 ------- 1 0.0 4.0 68 455
+ 4.8752 0 2 tcp 1040 ------- 1 0.0 4.0 69 458
- 4.8752 0 2 tcp 1040 ------- 1 0.0 4.0 69 458
+ 4.88352 0 2 tcp 1040 ------- 1 0.0 4.0 70 459
- 4.88352 0 2 tcp 1040 ------- 1 0.0 4.0 70 459
r 4.89352 0 2 tcp 1040 ------- 1 0.0 4.0 69 458
r 4.90184 0 2 tcp 1040 ------- 1 0.0 4.0 70 459
+ 4.9568 0 2 tcp 1040 ------- 1 0.0 4.0 71 462
- 4.9568 0 2 tcp 1040 ------- 1 0.0 4.0 71 462
+ 4.9568 0 2 tcp 1040 ------- 1 0.0 4.0 72 463
+ 4.96512 0 2 tcp 1040 ------- 1 0.0 4.0 73 464
- 4.96512 0 2 tcp 1040 ------- 1 0.0 4.0 72 463
- 4.97344 0 2 tcp 1040 ------- 1 0.0 4.0 73 464
r 4.97512 0 2 tcp 1040 ------- 1 0.0 4.0 71 462
r 4.98344 0 2 tcp 1040 ------- 1 0.0 4.0 72 463
r 4.99176 0 2 tcp 1040 ------- 1 0.0 4.0 73 464
