V -t * -v 1.0a5 -a 0
A -t * -n 1 -p 0 -o 0x7fffffff -c 30 -a 1
A -t * -h 1 -m 1073741823 -s 0
c -t * -i 1 -n Blue
c -t * -i 2 -n Red
n -t * -a 4 -s 4 -S UP -v circle -c black -i black
n -t * -a 0 -s 0 -S UP -v circle -c black -i black
n -t * -a 5 -s 5 -S UP -v circle -c black -i black
n -t * -a 1 -s 1 -S UP -v circle -c black -i black
n -t * -a 2 -s 2 -S UP -v circle -c black -i black
n -t * -a 3 -s 3 -S UP -v circle -c black -i black
l -t * -s 0 -d 2 -S UP -r 1000000 -D 0.01 -c black -o right-down
l -t * -s 1 -d 2 -S UP -r 1000000 -D 0.01 -c black -o right-up
l -t * -s 2 -d 3 -S UP -r 1000000 -D 0.01 -c black -o right
l -t * -s 3 -d 4 -S UP -r 2000000 -D 0.01 -c black -o right-up
l -t * -s 3 -d 5 -S UP -r 2000000 -D 0.01 -c black -o right-down
q -t * -s 3 -d 2 -a 0.5
q -t * -s 2 -d 3 -a 0.5
+ -t 0.5 -s 0 -d 2 -p tcp -e 40 -c 1 -i 0 -a 1 -x {0.0 4.0 0 ------- null}
- -t 0.5 -s 0 -d 2 -p tcp -e 40 -c 1 -i 0 -a 1 -x {0.0 4.0 0 ------- null}
h -t 0.5 -s 0 -d 2 -p tcp -e 40 -c 1 -i 0 -a 1 -x {0.0 4.0 -1 ------- null}
r -t 0.51032 -s 0 -d 2 -p tcp -e 40 -c 1 -i 0 -a 1 -x {0.0 4.0 0 ------- null}
+ -t 0.51032 -s 2 -d 3 -p tcp -e 40 -c 1 -i 0 -a 1 -x {0.0 4.0 0 ------- null}
- -t 0.51032 -s 2 -d 3 -p tcp -e 40 -c 1 -i 0 -a 1 -x {0.0 4.0 0 ------- null}
h -t 0.51032 -s 2 -d 3 -p tcp -e 40 -c 1 -i 0 -a 1 -x {0.0 4.0 -1 ------- null}
r -t 0.52064 -s 2 -d 3 -p tcp -e 40 -c 1 -i 0 -a 1 -x {0.0 4.0 0 ------- null}
+ -t 0.52064 -s 3 -d 4 -p tcp -e 40 -c 1 -i 0 -a 1 -x {0.0 4.0 0 ------- null}
- -t 0.52064 -s 3 -d 4 -p tcp -e 40 -c 1 -i 0 -a 1 -x {0.0 4.0 0 ------- null}
h -t 0.52064 -s 3 -d 4 -p tcp -e 40 -c 1 -i 0 -a 1 -x {0.0 4.0 -1 ------- null}
r -t 0.5308 -s 3 -d 4 -p tcp -e 40 -c 1 -i 0 -a 1 -x {0.0 4.0 0 ------- null}
+ -t 0.5308 -s 4 -d 3 -p ack -e 40 -c 1 -i 1 -a 1 -x {4.0 0.0 0 ------- null}
- -t 0.5308 -s 4 -d 3 -p ack -e 40 -c 1 -i 1 -a 1 -x {4.0 0.0 0 ------- null}
h -t 0.5308 -s 4 -d 3 -p ack -e 40 -c 1 -i 1 -a 1 -x {4.0 0.0 -1 ------- null}
r -t 0.54096 -s 4 -d 3 -p ack -e 40 -c 1 -i 1 -a 1 -x {4.0 0.0 0 ------- null}
+ -t 0.54096 -s 3 -d 2 -p ack -e 40 -c 1 -i 1 -a 1 -x {4.0 0.0 0 ------- null}
- -t 0.54096 -s 3 -d 2 -p ack -e 40 -c 1 -i 1 -a 1 -x {4.0 0.0 0 ------- null}
h -t 0.54096 -s 3 -d 2 -p ack -e 40 -c 1 -i 1 -a 1 -x {4.0 0.0 -1 ------- null}
r -t 0.55128 -s 3 -d 2 -p ack -e 40 -c 1 -i 1 -a 1 -x {4.0 0.0 0 ------- null}
+ -t 0.55128 -s 2 -d 0 -p ack -e 40 -c 1 -i 1 -a 1 -x {4.0 0.0 0 ------- null}
- -t 0.55128 -s 2 -d 0 -p ack -e 40 -c 1 -i 1 -a 1 -x {4.0 0.0 0 ------- null}
h -t 0.55128 -s 2 -d 0 -p ack -e 40 -c 1 -i 1 -a 1 -x {4.0 0.0 -1 ------- null}
r -t 0.5616 -s 2 -d 0 -p ack -e 40 -c 1 -i 1 -a 1 -x {4.0 0.0 0 ------- null}
+ -t 0.5616 -s 0 -d 2 -p tcp -e 1040 -c 1 -i 2 -a 1 -x {0.0 4.0 1 ------- null}
- -t 0.5616 -s 0 -d 2 -p tcp -e 1040 -c 1 -i 2 -a 1 -x {0.0 4.0 1 ------- null}
h -t 0.5616 -s 0 -d 2 -p tcp -e 1040 -c 1 -i 2 -a 1 -x {0.0 4.0 -1 ------- null}
+ -t 0.5616 -s 0 -d 2 -p tcp -e 1040 -c 1 -i 3 -a 1 -x {0.0 4.0 2 ------- null}
- -t 0.56992 -s 0 -d 2 -p tcp -e 1040 -c 1 -i 3 -a 1 -x {0.0 4.0 2 ------- null}
h -t 0.56992 -s 0 -d 2 -p tcp -e 1040 -c 1 -i 3 -a 1 -x {0.0 4.0 -1 ------- null}
r -t 0.57992 -s 0 -d 2 -p tcp -e 1040 -c 1 -i 2 -a 1 -x {0.0 4.0 1 ------- null}
+ -t 0.57992 -s 2 -d 3 -p tcp -e 1040 -c 1 -i 2 -a 1 -x {0.0 4.0 1 ------- null}
- -t 0.57992 -s 2 -d 3 -p tcp -e 1040 -c 1 -i 2 -a 1 -x {0.0 4.0 1 ------- null}
h -t 0.57992 -s 2 -d 3 -p tcp -e 1040 -c 1 -i 2 -a 1 -x {0.0 4.0 -1 ------- null}
r -t 0.58824 -s 0 -d 2 -p tcp -e 1040 -c 1 -i 3 -a 1 -x {0.0 4.0 2 ------- null}
+ -t 0.58824 -s 2 -d 3 -p tcp -e 1040 -c 1 -i 3 -a 1 -x {0.0 4.0 2 ------- null}
- -t 0.58824 -s 2 -d 3 -p tcp -e 1040 -c 1 -i 3 -a 1 -x {0.0 4.0 2 ------- null}
h -t 0.58824 -s 2 -d 3 -p tcp -e 1040 -c 1 -i 3 -a 1 -x {0.0 4.0 -1 ------- null}
r -t 0.59824 -s 2 -d 3 -p tcp -e 1040 -c 1 -i 2 -a 1 -x {0.0 4.0 1 ------- null}
+ -t 0.59824 -s 3 -d 4 -p tcp -e 1040 -c 1 -i 2 -a 1 -x {0.0 4.0 1 ------- null}
- -t 0.59824 -s 3 -d 4 -p tcp -e 1040 -c 1 -i 2 -a 1 -x {0.0 4.0 1 ------- null}
h -t 0.59824 -s 3 -d 4 -p tcp -e 1040 -c 1 -i 2 -a 1 -x {0.0 4.0 -1 ------- null}
r -t 0.60656 -s 2 -d 3 -p tcp -e 1040 -c 1 -i 3 -a 1 -x {0.0 4.0 2 ------- null}
+ -t 0.60656 -s 3 -d 4 -p tcp -e 1040 -c 1 -i 3 -a 1 -x {0.0 4.0 2 ------- null}
- -t 0.60656 -s 3 -d 4 -p tcp -e 1040 -c 1 -i 3 -a 1 -x {0.0 4.0 2 ------- null}
h -t 0.60656 -s 3 -d 4 -p tcp -e 1040 -c 1 -i 3 -a 1 -x {0.0 4.0 -1 ------- null}
r -t 0.6124 -s 3 -d 4 -p tcp -e 1040 -c 1 -i 2 -a 1 -x {0.0 4.0 1 ------- null}
+ -t 0.6124 -s 4 -d 3 -p ack -e 40 -c 1 -i 4 -a 1 -x {4.0 0.0 1 ------- null}
- -t 0.6124 -s 4 -d 3 -p ack -e 40 -c 1 -i 4 -a 1 -x {4.0 0.0 1 ------- null}
h -t 0.6124 -s 4 -d 3 -p ack -e 40 -c 1 -i 4 -a 1 -x {4.0 0.0 -1 ------- null}
r -t 0.62072 -s 3 -d 4 -p tcp -e 1040 -c 1 -i 3 -a 1 -x {0.0 4.0 2 ------- null}
+ -t 0.62072 -s 4 -d 3 -p ack -e 40 -c 1 -i 5 -a 1 -x {4.0 0.0 2 ------- null}
- -t 0.62072 -s 4 -d 3 -p ack -e 40 -c 1 -i 5 -a 1 -x {4.0 0.0 2 ------- null}
h -t 0.62072 -s 4 -d 3 -p ack -e 40 -c 1 -i 5 -a 1 -x {4.0 0.0 -1 ------- null}
r -t 0.62256 -s 4 -d 3 -p ack -e 40 -c 1 -i 4 -a 1 -x {4.0 0.0 1 ------- null}
+ -t 0.62256 -s 3 -d 2 -p ack -e 40 -c 1 -i 4 -a 1 -x {4.0 0.0 1 ------- null}
- -t 0.62256 -s 3 -d 2 -p ack -e 40 -c 1 -i 4 -a 1 -x {4.0 0.0 1 ------- null}
h -t 0.62256 -s 3 -d 2 -p ack -e 40 -c 1 -i 4 -a 1 -x {4.0 0.0 -1 ------- null}
r -t 0.63088 -s 4 -d 3 -p ack -e 40 -c 1 -i 5 -a 1 -x {4.0 0.0 2 ------- null}
+ -t 0.63088 -s 3 -d 2 -p ack -e 40 -c 1 -i 5 -a 1 -x {4.0 0.0 2 ------- null}
- -t 0.63088 -s 3 -d 2 -p ack -e 40 -c 1 -i 5 -a 1 -x {4.0 0.0 2 ------- null}
h -t 0.63088 -s 3 -d 2 -p ack -e 40 -c 1 -i 5 -a 1 -x {4.0 0.0 -1 ------- null}
r -t 0.63288 -s 3 -d 2 -p ack -e 40 -c 1 -i 4 -a 1 -x {4.0 0.0 1 ------- null}
+ -t 0.63288 -s 2 -d 0 -p ack -e 40 -c 1 -i 4 -a 1 -x {4.0 0.0 1 ------- null}
- -t 0.63288 -s 2 -d 0 -p ack -e 40 -c 1 -i 4 -a 1 -x {4.0 0.0 1 ------- null}
h -t 0.63288 -s 2 -d 0 -p ack -e 40 -c 1 -i 4 -a 1 -x {4.0 0.0 -1 ------- null}
r -t 0.6412 -s 3 -d 2 -p ack -e 40 -c 1 -i 5 -a 1 -x {4.0 0.0 2 ------- null}
+ -t 0.6412 -s 2 -d 0 -p ack -e 40 -c 1 -i 5 -a 1 -x {4.0 0.0 2 ------- null}
- -t 0.6412 -s 2 -d 0 -p ack -e 40 -c 1 -i 5 -a 1 -x {4.0 0.0 2 ------- null}
h -t 0.6412 -s 2 -d 0 -p ack -e 40 -c 1 -i 5 -a 1 -x {4.0 0.0 -1 ------- null}
r -t 0.6432 -s 2 -d 0 -p ack -e 40 -c 1 -i 4 -a 1 -x {4.0 0.0 1 ------- null}
+ -t 0.6432 -s 0 -d 2 -p tcp -e 1040 -c 1 -i 6 -a 1 -x {0.0 4.0 3 ------- null}
- -t 0.6432 -s 0 -d 2 -p tcp -e 1040 -c 1 -i 6 -a 1 -x {0.0 4.0 3 ------- null}
h -t 0.6432 -s 0 -d 2 -p tcp -e 1040 -c 1 -i 6 -a 1 -x {0.0 4.0 -1 ------- null}
+ -t 0.6432 -s 0 -d 2 -p tcp -e 1040 -c 1 -i 7 -a 1 -x {0.0 4.0 4 ------- null}
r -t 0.65152 -s 2 -d 0 -p ack -e 40 -c 1 -i 5 -a 1 -x {4.0 0.0 2 ------- null}
+ -t 0.65152 -s 0 -d 2 -p tcp -e 1040 -c 1 -i 8 -a 1 -x {0.0 4.0 5 ------- null}
+ -t 0.65152 -s 0 -d 2 -p tcp -e 1040 -c 1 -i 9 -a 1 -x {0.0 4.0 6 ------- null}
- -t 0.65152 -s 0 -d 2 -p tcp -e 1040 -c 1 -i 7 -a 1 -x {0.0 4.0 4 ------- null}
h -t 0.65152 -s 0 -d 2 -p tcp -e 1040 -c 1 -i 7 -a 1 -x {0.0 4.0 -1 ------- null}
- -t 0.65984 -s 0 -d 2 -p tcp -e 1040 -c 1 -i 8 -a 1 -x {0.0 4.0 5 ------- null}
h -t 0.65984 -s 0 -d 2 -p tcp -e 1040 -c 1 -i 8 -a 1 -x {0.0 4.0 -1 ------- null}
r -t 0.66152 -s 0 -d 2 -p tcp -e 1040 -c 1 -i 6 -a 1 -x {0.0 4.0 3 ------- null}
+ -t 0.66152 -s 2 -d 3 -p tcp -e 1040 -c 1 -i 6 -a 1 -x {0.0 4.0 3 ------- null}
- -t 0.66152 -s 2 -d 3 -p tcp -e 1040 -c 1 -i 6 -a 1 -x {0.0 4.0 3 ------- null}
h -t 0.66152 -s 2 -d 3 -p tcp -e 1040 -c 1 -i 6 -a 1 -x {0.0 4.0 -1 ------- null}
- -t 0.66816 -s 0 -d 2 -p tcp -e 1040 -c 1 -i 9 -a 1 -x {0.0 4.0 6 ------- null}
h -t 0.66816 -s 0 -d 2 -p tcp -e 1040 -c 1 -i 9 -a 1 -x {0.0 4.0 -1 ------- null}
r -t 0.66984 -s 0 -d 2 -p tcp -e 1040 -c 1 -i 7 -a 1 -x {0.0 4.0 4 ------- null}
+ -t 0.66984 -s 2 -d 3 -p tcp -e 1040 -c 1 -i 7 -a 1 -x {0.0 4.0 4 ------- null}
- -t 0.66984 -s 2 -d 3 -p tcp -e 1040 -c 1 -i 7 -a 1 -x {0.0 4.0 4 ------- null}
h -t 0.66984 -s 2 -d 3 -p tcp -e 1040 -c 1 -i 7 -a 1 -x {0.0 4.0 -1 ------- null}
r -t 0.67816 -s 0 -d 2 -p tcp -e 1040 -c 1 -i 8 -a 1 -x {0.0 4.0 5 ------- null}
+ -t 0.67816 -s 2 -d 3 -p tcp -e 1040 -c 1 -i 8 -a 1 -x {0.0 4.0 5 ------- null}
- -t 0.67816 -s 2 -d 3 -p tcp -e 1040 -c 1 -i 8 -a 1 -x {0.0 4.0 5 ------- null}
h -t 0.67816 -s 2 -d 3 -p tcp -e 1040 -c 1 -i 8 -a 1 -x {0.0 4.0 -1 ------- null}
r -t 0.67984 -s 2 -d 3 -p tcp -e 1040 -c 1 -i 6 -a 1 -x {0.0 4.0 3 ------- null}
+ -t 0.67984 -s 3 -d 4 -p tcp -e 1040 -c 1 -i 6 -a 1 -x {0.0 4.0 3 ------- null}
- -t 0.67984 -s 3 -d 4 -p tcp -e 1040 -c 1 -i 6 -a 1 -x {0.0 4.0 3 ------- null}
h -t 0.67984 -s 3 -d 4 -p tcp -e 1040 -c 1 -i 6 -a 1 -x {0.0 4.0 -1 ------- null}
r -t 0.68648 -s 0 -d 2 -p tcp -e 1040 -c 1 -i 9 -a 1 -x {0.0 4.0 6 ------- null}
+ -t 0.68648 -s 2 -d 3 -p tcp -e 1040 -c 1 -i 9 -a 1 -x {0.0 4.0 6 ------- null}
- -t 0.68648 -s 2 -d 3 -p tcp -e 1040 -c 1 -i 9 -a 1 -x {0.0 4.0 6 ------- null}
h -t 0.68648 -s 2 -d 3 -p tcp -e 1040 -c 1 -i 9 -a 1 -x {0.0 4.0 -1 ------- null}
r -t 0.68816 -s 2 -d 3 -p tcp -e 1040 -c 1 -i 7 -a 1 -x {0.0 4.0 4 ------- null}
+ -t 0.68816 -s 3 -d 4 -p tcp -e 1040 -c 1 -i 7 -a 1 -x {0.0 4.0 4 ------- null}
- -t 0.68816 -s 3 -d 4 -p tcp -e 1040 -c 1 -i 7 -a 1 -x {0.0 4.0 4 ------- null}
h -t 0.68816 -s 3 -d 4 -p tcp -e 1040 -c 1 -i 7 -a 1 -x {0.0 4.0 -1 ------- null}
r -t 0.694 -s 3 -d 4 -p tcp -e 1040 -c 1 -i 6 -a 1 -x {0.0 4.0 3 ------- null}
+ -t 0.694 -s 4 -d 3 -p ack -e 40 -c 1 -i 10 -a 1 -x {4.0 0.0 3 ------- null}
- -t 0.694 -s 4 -d 3 -p ack -e 40 -c 1 -i 10 -a 1 -x {4.0 0.0 3 ------- null}
h -t 0.694 -s 4 -d 3 -p ack -e 40 -c 1 -i 10 -a 1 -x {4.0 0.0 -1 ------- null}
r -t 0.69648 -s 2 -d 3 -p tcp -e 1040 -c 1 -i 8 -a 1 -x {0.0 4.0 5 ------- null}
+ -t 0.69648 -s 3 -d 4 -p tcp -e 1040 -c 1 -i 8 -a 1 -x {0.0 4.0 5 ------- null}
- -t 0.69648 -s 3 -d 4 -p tcp -e 1040 -c 1 -i 8 -a 1 -x {0.0 4.0 5 ------- null}
h -t 0.69648 -s 3 -d 4 -p tcp -e 1040 -c 1 -i 8 -a 1 -x {0.0 4.0 -1 ------- null}
r -t 0.70232 -s 3 -d 4 -p tcp -e 1040 -c 1 -i 7 -a 1 -x {0.0 4.0 4 ------- null}
+ -t 0.70232 -s 4 -d 3 -p ack -e 40 -c 1 -i 11 -a 1 -x {4.0 0.0 4 ------- null}
- -t 0.70232 -s 4 -d 3 -p ack -e 40 -c 1 -i 11 -a 1 -x {4.0 0.0 4 ------- null}
h -t 0.70232 -s 4 -d 3 -p ack -e 40 -c 1 -i 11 -a 1 -x {4.0 0.0 -1 ------- null}
r -t 0.70416 -s 4 -d 3 -p ack -e 40 -c 1 -i 10 -a 1 -x {4.0 0.0 3 ------- null}
+ -t 0.70416 -s 3 -d 2 -p ack -e 40 -c 1 -i 10 -a 1 -x {4.0 0.0 3 ------- null}
- -t 0.70416 -s 3 -d 2 -p ack -e 40 -c 1 -i 10 -a 1 -x {4.0 0.0 3 ------- null}
h -t 0.70416 -s 3 -d 2 -p ack -e 40 -c 1 -i 10 -a 1 -x {4.0 0.0 -1 ------- null}
r -t 0.7048 -s 2 -d 3 -p tcp -e 1040 -c 1 -i 9 -a 1 -x {0.0 4.0 6 ------- null}
+ -t 0.7048 -s 3 -d 4 -p tcp -e 1040 -c 1 -i 9 -a 1 -x {0.0 4.0 6 ------- null}
- -t 0.7048 -s 3 -d 4 -p tcp -e 1040 -c 1 -i 9 -a 1 -x {0.0 4.0 6 ------- null}
h -t 0.7048 -s 3 -d 4 -p tcp -e 1040 -c 1 -i 9 -a 1 -x {0.0 4.0 -1 ------- null}
r -t 0.71064 -s 3 -d 4 -p tcp -e 1040 -c 1 -i 8 -a 1 -x {0.0 4.0 5 ------- null}
+ -t 0.71064 -s 4 -d 3 -p ack -e 40 -c 1 -i 12 -a 1 -x {4.0 0.0 5 ------- null}
- -t 0.71064 -s 4 -d 3 -p ack -e 40 -c 1 -i 12 -a 1 -x {4.0 0.0 5 ------- null}
h -t 0.71064 -s 4 -d 3 -p ack -e 40 -c 1 -i 12 -a 1 -x {4.0 0.0 -1 ------- null}
r -t 0.71248 -s 4 -d 3 -p ack -e 40 -c 1 -i 11 -a 1 -x {4.0 0.0 4 ------- null}
+ -t 0.71248 -s 3 -d 2 -p ack -e 40 -c 1 -i 11 -a 1 -x {4.0 0.0 4 ------- null}
- -t 0.71248 -s 3 -d 2 -p ack -e 40 -c 1 -i 11 -a 1 -x {4.0 0.0 4 ------- null}
h -t 0.71248 -s 3 -d 2 -p ack -e 40 -c 1 -i 11 -a 1 -x {4.0 0.0 -1 ------- null}
r -t 0.71448 -s 3 -d 2 -p ack -e 40 -c 1 -i 10 -a 1 -x {4.0 0.0 3 ------- null}
+ -t 0.71448 -s 2 -d 0 -p ack -e 40 -c 1 -i 10 -a 1 -x {4.0 0.0 3 ------- null}
- -t 0.71448 -s 2 -d 0 -p ack -e 40 -c 1 -i 10 -a 1 -x {4.0 0.0 3 ------- null}
h -t 0.71448 -s 2 -d 0 -p ack -e 40 -c 1 -i 10 -a 1 -x {4.0 0.0 -1 ------- null}
r -t 0.71896 -s 3 -d 4 -p tcp -e 1040 -c 1 -i 9 -a 1 -x {0.0 4.0 6 ------- null}
+ -t 0.71896 -s 4 -d 3 -p ack -e 40 -c 1 -i 13 -a 1 -x {4.0 0.0 6 ------- null}
- -t 0.71896 -s 4 -d 3 -p ack -e 40 -c 1 -i 13 -a 1 -x {4.0 0.0 6 ------- null}
h -t 0.71896 -s 4 -d 3 -p ack -e 40 -c 1 -i 13 -a 1 -x {4.0 0.0 -1 ------- null}
r -t 0.7208 -s 4 -d 3 -p ack -e 40 -c 1 -i 12 -a 1 -x {4.0 0.0 5 ------- null}
+ -t 0.7208 -s 3 -d 2 -p ack -e 40 -c 1 -i 12 -a 1 -x {4.0 0.0 5 ------- null}
- -t 0.7208 -s 3 -d 2 -p ack -e 40 -c 1 -i 12 -a 1 -x {4.0 0.0 5 ------- null}
h -t 0.7208 -s 3 -d 2 -p ack -e 40 -c 1 -i 12 -a 1 -x {4.0 0.0 -1 ------- null}
r -t 0.7228 -s 3 -d 2 -p ack -e 40 -c 1 -i 11 -a 1 -x {4.0 0.0 4 ------- null}
+ -t 0.7228 -s 2 -d 0 -p ack -e 40 -c 1 -i 11 -a 1 -x {4.0 0.0 4 ------- null}
- -t 0.7228 -s 2 -d 0 -p ack -e 40 -c 1 -i 11 -a 1 -x {4.0 0.0 4 ------- null}
h -t 0.7228 -s 2 -d 0 -p ack -e 40 -c 1 -i 11 -a 1 -x {4.0 0.0 -1 ------- null}
r -t 0.7248 -s 2 -d 0 -p ack -e 40 -c 1 -i 10 -a 1 -x {4.0 0.0 3 ------- null}
+ -t 0.7248 -s 0 -d 2 -p tcp -e 1040 -c 1 -i 14 -a 1 -x {0.0 4.0 7 ------- null}
- -t 0.7248 -s 0 -d 2 -p tcp -e 1040 -c 1 -i 14 -a 1 -x {0.0 4.0 7 ------- null}
h -t 0.7248 -s 0 -d 2 -p tcp -e 1040 -c 1 -i 14 -a 1 -x {0.0 4.0 -1 ------- null}
+ -t 0.7248 -s 0 -d 2 -p tcp -e 1040 -c 1 -i 15 -a 1 -x {0.0 4.0 8 ------- null}
r -t 0.72912 -s 4 -d 3 -p ack -e 40 -c 1 -i 13 -a 1 -x {4.0 0.0 6 ------- null}
+ -t 0.72912 -s 3 -d 2 -p ack -e 40 -c 1 -i 13 -a 1 -x {4.0 0.0 6 ------- null}
- -t 0.72912 -s 3 -d 2 -p ack -e 40 -c 1 -i 13 -a 1 -x {4.0 0.0 6 ------- null}
h -t 0.72912 -s 3 -d 2 -p ack -e 40 -c 1 -i 13 -a 1 -x {4.0 0.0 -1 ------- null}
r -t 0.73112 -s 3 -d 2 -p ack -e 40 -c 1 -i 12 -a 1 -x {4.0 0.0 5 ------- null}
+ -t 0.73112 -s 2 -d 0 -p ack -e 40 -c 1 -i 12 -a 1 -x {4.0 0.0 5 ------- null}
- -t 0.73112 -s 2 -d 0 -p ack -e 40 -c 1 -i 12 -a 1 -x {4.0 0.0 5 ------- null}
h -t 0.73112 -s 2 -d 0 -p ack -e 40 -c 1 -i 12 -a 1 -x {4.0 0.0 -1 ------- null}
r -t 0.73312 -s 2 -d 0 -p ack -e 40 -c 1 -i 11 -a 1 -x {4.0 0.0 4 ------- null}
+ -t 0.73312 -s 0 -d 2 -p tcp -e 1040 -c 1 -i 16 -a 1 -x {0.0 4.0 9 ------- null}
+ -t 0.73312 -s 0 -d 2 -p tcp -e 1040 -c 1 -i 17 -a 1 -x {0.0 4.0 10 ------- null}
- -t 0.73312 -s 0 -d 2 -p tcp -e 1040 -c 1 -i 15 -a 1 -x {0.0 4.0 8 ------- null}
h -t 0.73312 -s 0 -d 2 -p tcp -e 1040 -c 1 -i 15 -a 1 -x {0.0 4.0 -1 ------- null}
r -t 0.73944 -s 3 -d 2 -p ack -e 40 -c 1 -i 13 -a 1 -x {4.0 0.0 6 ------- null}
+ -t 0.73944 -s 2 -d 0 -p ack -e 40 -c 1 -i 13 -a 1 -x {4.0 0.0 6 ------- null}
- -t 0.73944 -s 2 -d 0 -p ack -e 40 -c 1 -i 13 -a 1 -x {4.0 0.0 6 ------- null}
h -t 0.73944 -s 2 -d 0 -p ack -e 40 -c 1 -i 13 -a 1 -x {4.0 0.0 -1 ------- null}
r -t 0.74144 -s 2 -d 0 -p ack -e 40 -c 1 -i 12 -a 1 -x {4.0 0.0 5 ------- null}
+ -t 0.74144 -s 0 -d 2 -p tcp -e 1040 -c 1 -i 18 -a 1 -x {0.0 4.0 11 ------- null}
+ -t 0.74144 -s 0 -d 2 -p tcp -e 1040 -c 1 -i 19 -a 1 -x {0.0 4.0 12 ------- null}
- -t 0.74144 -s 0 -d 2 -p tcp -e 1040 -c 1 -i 16 -a 1 -x {0.0 4.0 9 ------- null}
h -t 0.74144 -s 0 -d 2 -p tcp -e 1040 -c 1 -i 16 -a 1 -x {0.0 4.0 -1 ------- null}
r -t 0.74312 -s 0 -d 2 -p tcp -e 1040 -c 1 -i 14 -a 1 -x {0.0 4.0 7 ------- null}
+ -t 0.74312 -s 2 -d 3 -p tcp -e 1040 -c 1 -i 14 -a 1 -x {0.0 4.0 7 ------- null}
- -t 0.74312 -s 2 -d 3 -p tcp -e 1040 -c 1 -i 14 -a 1 -x {0.0 4.0 7 ------- null}
h -t 0.74312 -s 2 -d 3 -p tcp -e 1040 -c 1 -i 14 -a 1 -x {0.0 4.0 -1 ------- null}
r -t 0.74976 -s 2 -d 0 -p ack -e 40 -c 1 -i 13 -a 1 -x {4.0 0.0 6 ------- null}
+ -t 0.74976 -s 0 -d 2 -p tcp -e 1040 -c 1 -i 20 -a 1 -x {0.0 4.0 13 ------- null}
+ -t 0.74976 -s 0 -d 2 -p tcp -e 1040 -c 1 -i 21 -a 1 -x {0.0 4.0 14 ------- null}
- -t 0.74976 -s 0 -d 2 -p tcp -e 1040 -c 1 -i 17 -a 1 -x {0.0 4.0 10 ------- null}
h -t 0.74976 -s 0 -d 2 -p tcp -e 1040 -c 1 -i 17 -a 1 -x {0.0 4.0 -1 ------- null}
r -t 0.75144 -s 0 -d 2 -p tcp -e 1040 -c 1 -i 15 -a 1 -x {0.0 4.0 8 ------- null}
+ -t 0.75144 -s 2 -d 3 -p tcp -e 1040 -c 1 -i 15 -a 1 -x {0.0 4.0 8 ------- null}
- -t 0.75144 -s 2 -d 3 -p tcp -e 1040 -c 1 -i 15 -a 1 -x {0.0 4.0 8 ------- null}
h -t 0.75144 -s 2 -d 3 -p tcp -e 1040 -c 1 -i 15 -a 1 -x {0.0 4.0 -1 ------- null}
- -t 0.75808 -s 0 -d 2 -p tcp -e 1040 -c 1 -i 18 -a 1 -x {0.0 4.0 11 ------- null}
h -t 0.75808 -s 0 -d 2 -p tcp -e 1040 -c 1 -i 18 -a 1 -x {0.0 4.0 -1 ------- null}
r -t 0.75976 -s 0 -d 2 -p tcp -e 1040 -c 1 -i 16 -a 1 -x {0.0 4.0 9 ------- null}
+ -t 0.75976 -s 2 -d 3 -p tcp -e 1040 -c 1 -i 16 -a 1 -x {0.0 4.0 9 ------- null}
- -t 0.75976 -s 2 -d 3 -p tcp -e 1040 -c 1 -i 16 -a 1 -x {0.0 4.0 9 ------- null}
h -t 0.75976 -s 2 -d 3 -p tcp -e 1040 -c 1 -i 16 -a 1 -x {0.0 4.0 -1 ------- null}
r -t 0.76144 -s 2 -d 3 -p tcp -e 1040 -c 1 -i 14 -a 1 -x {0.0 4.0 7 ------- null}
+ -t 0.76144 -s 3 -d 4 -p tcp -e 1040 -c 1 -i 14 -a 1 -x {0.0 4.0 7 ------- null}
- -t 0.76144 -s 3 -d 4 -p tcp -e 1040 -c 1 -i 14 -a 1 -x {0.0 4.0 7 ------- null}
h -t 0.76144 -s 3 -d 4 -p tcp -e 1040 -c 1 -i 14 -a 1 -x {0.0 4.0 -1 ------- null}
- -t 0.7664 -s 0 -d 2 -p tcp -e 1040 -c 1 -i 19 -a 1 -x {0.0 4.0 12 ------- null}
h -t 0.7664 -s 0 -d 2 -p tcp -e 1040 -c 1 -i 19 -a 1 -x {0.0 4.0 -1 ------- null}
r -t 0.76808 -s 0 -d 2 -p tcp -e 1040 -c 1 -i 17 -a 1 -x {0.0 4.0 10 ------- null}
+ -t 0.76808 -s 2 -d 3 -p tcp -e 1040 -c 1 -i 17 -a 1 -x {0.0 4.0 10 ------- null}
- -t 0.76808 -s 2 -d 3 -p tcp -e 1040 -c 1 -i 17 -a 1 -x {0.0 4.0 10 ------- null}
h -t 0.76808 -s 2 -d 3 -p tcp -e 1040 -c 1 -i 17 -a 1 -x {0.0 4.0 -1 ------- null}
r -t 0.76976 -s 2 -d 3 -p tcp -e 1040 -c 1 -i 15 -a 1 -x {0.0 4.0 8 ------- null}
+ -t 0.76976 -s 3 -d 4 -p tcp -e 1040 -c 1 -i 15 -a 1 -x {0.0 4.0 8 ------- null}
- -t 0.76976 -s 3 -d 4 -p tcp -e 1040 -c 1 -i 15 -a 1 -x {0.0 4.0 8 ------- null}
h -t 0.76976 -s 3 -d 4 -p tcp -e 1040 -c 1 -i 15 -a 1 -x {0.0 4.0 -1 ------- null}
- -t 0.77472 -s 0 -d 2 -p tcp -e 1040 -c 1 -i 20 -a 1 -x {0.0 4.0 13 ------- null}
h -t 0.77472 -s 0 -d 2 -p tcp -e 1040 -c 1 -i 20 -a 1 -x {0.0 4.0 -1 ------- null}
r -t 0.7756 -s 3 -d 4 -p tcp -e 1040 -c 1 -i 14 -a 1 -x {0.0 4.0 7 ------- null}
+ -t 0.7756 -s 4 -d 3 -p ack -e 40 -c 1 -i 22 -a 1 -x {4.0 0.0 7 ------- null}
- -t 0.7756 -s 4 -d 3 -p ack -e 40 -c 1 -i 22 -a 1 -x {4.0 0.0 7 ------- null}
h -t 0.7756 -s 4 -d 3 -p ack -e 40 -c 1 -i 22 -a 1 -x {4.0 0.0 -1 ------- null}
r -t 0.7764 -s 0 -d 2 -p tcp -e 1040 -c 1 -i 18 -a 1 -x {0.0 4.0 11 ------- null}
+ -t 0.7764 -s 2 -d 3 -p tcp -e 1040 -c 1 -i 18 -a 1 -x {0.0 4.0 11 ------- null}
- -t 0.7764 -s 2 -d 3 -p tcp -e 1040 -c 1 -i 18 -a 1 -x {0.0 4.0 11 ------- null}
h -t 0.7764 -s 2 -d 3 -p tcp -e 1040 -c 1 -i 18 -a 1 -x {0.0 4.0 -1 ------- null}
r -t 0.77808 -s 2 -d 3 -p tcp -e 1040 -c 1 -i 16 -a 1 -x {0.0 4.0 9 ------- null}
+ -t 0.77808 -s 3 -d 4 -p tcp -e 1040 -c 1 -i 16 -a 1 -x {0.0 4.0 9 ------- null}
- -t 0.77808 -s 3 -d 4 -p tcp -e 1040 -c 1 -i 16 -a 1 -x {0.0 4.0 9 ------- null}
h -t 0.77808 -s 3 -d 4 -p tcp -e 1040 -c 1 -i 16 -a 1 -x {0.0 4.0 -1 ------- null}
- -t 0.78304 -s 0 -d 2 -p tcp -e 1040 -c 1 -i 21 -a 1 -x {0.0 4.0 14 ------- null}
h -t 0.78304 -s 0 -d 2 -p tcp -e 1040 -c 1 -i 21 -a 1 -x {0.0 4.0 -1 ------- null}
r -t 0.78392 -s 3 -d 4 -p tcp -e 1040 -c 1 -i 15 -a 1 -x {0.0 4.0 8 ------- null}
+ -t 0.78392 -s 4 -d 3 -p ack -e 40 -c 1 -i 23 -a 1 -x {4.0 0.0 8 ------- null}
- -t 0.78392 -s 4 -d 3 -p ack -e 40 -c 1 -i 23 -a 1 -x {4.0 0.0 8 ------- null}
h -t 0.78392 -s 4 -d 3 -p ack -e 40 -c 1 -i 23 -a 1 -x {4.0 0.0 -1 ------- null}
r -t 0.78472 -s 0 -d 2 -p tcp -e 1040 -c 1 -i 19 -a 1 -x {0.0 4.0 12 ------- null}
+ -t 0.78472 -s 2 -d 3 -p tcp -e 1040 -c 1 -i 19 -a 1 -x {0.0 4.0 12 ------- null}
- -t 0.78472 -s 2 -d 3 -p tcp -e 1040 -c 1 -i 19 -a 1 -x {0.0 4.0 12 ------- null}
h -t 0.78472 -s 2 -d 3 -p tcp -e 1040 -c 1 -i 19 -a 1 -x {0.0 4.0 -1 ------- null}
r -t 0.78576 -s 4 -d 3 -p ack -e 40 -c 1 -i 22 -a 1 -x {4.0 0.0 7 ------- null}
+ -t 0.78576 -s 3 -d 2 -p ack -e 40 -c 1 -i 22 -a 1 -x {4.0 0.0 7 ------- null}
- -t 0.78576 -s 3 -d 2 -p ack -e 40 -c 1 -i 22 -a 1 -x {4.0 0.0 7 ------- null}
h -t 0.78576 -s 3 -d 2 -p ack -e 40 -c 1 -i 22 -a 1 -x {4.0 0.0 -1 ------- null}
r -t 0.7864 -s 2 -d 3 -p tcp -e 1040 -c 1 -i 17 -a 1 -x {0.0 4.0 10 ------- null}
+ -t 0.7864 -s 3 -d 4 -p tcp -e 1040 -c 1 -i 17 -a 1 -x {0.0 4.0 10 ------- null}
- -t 0.7864 -s 3 -d 4 -p tcp -e 1040 -c 1 -i 17 -a 1 -x {0.0 4.0 10 ------- null}
h -t 0.7864 -s 3 -d 4 -p tcp -e 1040 -c 1 -i 17 -a 1 -x {0.0 4.0 -1 ------- null}
r -t 0.79224 -s 3 -d 4 -p tcp -e 1040 -c 1 -i 16 -a 1 -x {0.0 4.0 9 ------- null}
+ -t 0.79224 -s 4 -d 3 -p ack -e 40 -c 1 -i 24 -a 1 -x {4.0 0.0 9 ------- null}
- -t 0.79224 -s 4 -d 3 -p ack -e 40 -c 1 -i 24 -a 1 -x {4.0 0.0 9 ------- null}
h -t 0.79224 -s 4 -d 3 -p ack -e 40 -c 1 -i 24 -a 1 -x {4.0 0.0 -1 ------- null}
r -t 0.79304 -s 0 -d 2 -p tcp -e 1040 -c 1 -i 20 -a 1 -x {0.0 4.0 13 ------- null}
+ -t 0.79304 -s 2 -d 3 -p tcp -e 1040 -c 1 -i 20 -a 1 -x {0.0 4.0 13 ------- null}
- -t 0.79304 -s 2 -d 3 -p tcp -e 1040 -c 1 -i 20 -a 1 -x {0.0 4.0 13 ------- null}
h -t 0.79304 -s 2 -d 3 -p tcp -e 1040 -c 1 -i 20 -a 1 -x {0.0 4.0 -1 ------- null}
r -t 0.79408 -s 4 -d 3 -p ack -e 40 -c 1 -i 23 -a 1 -x {4.0 0.0 8 ------- null}
+ -t 0.79408 -s 3 -d 2 -p ack -e 40 -c 1 -i 23 -a 1 -x {4.0 0.0 8 ------- null}
- -t 0.79408 -s 3 -d 2 -p ack -e 40 -c 1 -i 23 -a 1 -x {4.0 0.0 8 ------- null}
h -t 0.79408 -s 3 -d 2 -p ack -e 40 -c 1 -i 23 -a 1 -x {4.0 0.0 -1 ------- null}
r -t 0.79472 -s 2 -d 3 -p tcp -e 1040 -c 1 -i 18 -a 1 -x {0.0 4.0 11 ------- null}
+ -t 0.79472 -s 3 -d 4 -p tcp -e 1040 -c 1 -i 18 -a 1 -x {0.0 4.0 11 ------- null}
- -t 0.79472 -s 3 -d 4 -p tcp -e 1040 -c 1 -i 18 -a 1 -x {0.0 4.0 11 ------- null}
h -t 0.79472 -s 3 -d 4 -p tcp -e 1040 -c 1 -i 18 -a 1 -x {0.0 4.0 -1 ------- null}
r -t 0.79608 -s 3 -d 2 -p ack -e 40 -c 1 -i 22 -a 1 -x {4.0 0.0 7 ------- null}
+ -t 0.79608 -s 2 -d 0 -p ack -e 40 -c 1 -i 22 -a 1 -x {4.0 0.0 7 ------- null}
- -t 0.79608 -s 2 -d 0 -p ack -e 40 -c 1 -i 22 -a 1 -x {4.0 0.0 7 ------- null}
h -t 0.79608 -s 2 -d 0 -p ack -e 40 -c 1 -i 22 -a 1 -x {4.0 0.0 -1 ------- null}
r -t 0.80056 -s 3 -d 4 -p tcp -e 1040 -c 1 -i 17 -a 1 -x {0.0 4.0 10 ------- null}
+ -t 0.80056 -s 4 -d 3 -p ack -e 40 -c 1 -i 25 -a 1 -x {4.0 0.0 10 ------- null}
- -t 0.80056 -s 4 -d 3 -p ack -e 40 -c 1 -i 25 -a 1 -x {4.0 0.0 10 ------- null}
h -t 0.80056 -s 4 -d 3 -p ack -e 40 -c 1 -i 25 -a 1 -x {4.0 0.0 -1 ------- null}
r -t 0.80136 -s 0 -d 2 -p tcp -e 1040 -c 1 -i 21 -a 1 -x {0.0 4.0 14 ------- null}
+ -t 0.80136 -s 2 -d 3 -p tcp -e 1040 -c 1 -i 21 -a 1 -x {0.0 4.0 14 ------- null}
- -t 0.80136 -s 2 -d 3 -p tcp -e 1040 -c 1 -i 21 -a 1 -x {0.0 4.0 14 ------- null}
h -t 0.80136 -s 2 -d 3 -p tcp -e 1040 -c 1 -i 21 -a 1 -x {0.0 4.0 -1 ------- null}
r -t 0.8024 -s 4 -d 3 -p ack -e 40 -c 1 -i 24 -a 1 -x {4.0 0.0 9 ------- null}
+ -t 0.8024 -s 3 -d 2 -p ack -e 40 -c 1 -i 24 -a 1 -x {4.0 0.0 9 ------- null}
- -t 0.8024 -s 3 -d 2 -p ack -e 40 -c 1 -i 24 -a 1 -x {4.0 0.0 9 ------- null}
h -t 0.8024 -s 3 -d 2 -p ack -e 40 -c 1 -i 24 -a 1 -x {4.0 0.0 -1 ------- null}
r -t 0.80304 -s 2 -d 3 -p tcp -e 1040 -c 1 -i 19 -a 1 -x {0.0 4.0 12 ------- null}
+ -t 0.80304 -s 3 -d 4 -p tcp -e 1040 -c 1 -i 19 -a 1 -x {0.0 4.0 12 ------- null}
- -t 0.80304 -s 3 -d 4 -p tcp -e 1040 -c 1 -i 19 -a 1 -x {0.0 4.0 12 ------- null}
h -t 0.80304 -s 3 -d 4 -p tcp -e 1040 -c 1 -i 19 -a 1 -x {0.0 4.0 -1 ------- null}
r -t 0.8044 -s 3 -d 2 -p ack -e 40 -c 1 -i 23 -a 1 -x {4.0 0.0 8 ------- null}
+ -t 0.8044 -s 2 -d 0 -p ack -e 40 -c 1 -i 23 -a 1 -x {4.0 0.0 8 ------- null}
- -t 0.8044 -s 2 -d 0 -p ack -e 40 -c 1 -i 23 -a 1 -x {4.0 0.0 8 ------- null}
h -t 0.8044 -s 2 -d 0 -p ack -e 40 -c 1 -i 23 -a 1 -x {4.0 0.0 -1 ------- null}
r -t 0.8064 -s 2 -d 0 -p ack -e 40 -c 1 -i 22 -a 1 -x {4.0 0.0 7 ------- null}
+ -t 0.8064 -s 0 -d 2 -p tcp -e 1040 -c 1 -i 26 -a 1 -x {0.0 4.0 15 ------- null}
- -t 0.8064 -s 0 -d 2 -p tcp -e 1040 -c 1 -i 26 -a 1 -x {0.0 4.0 15 ------- null}
h -t 0.8064 -s 0 -d 2 -p tcp -e 1040 -c 1 -i 26 -a 1 -x {0.0 4.0 -1 ------- null}
+ -t 0.8064 -s 0 -d 2 -p tcp -e 1040 -c 1 -i 27 -a 1 -x {0.0 4.0 16 ------- null}
r -t 0.80888 -s 3 -d 4 -p tcp -e 1040 -c 1 -i 18 -a 1 -x {0.0 4.0 11 ------- null}
+ -t 0.80888 -s 4 -d 3 -p ack -e 40 -c 1 -i 28 -a 1 -x {4.0 0.0 11 ------- null}
- -t 0.80888 -s 4 -d 3 -p ack -e 40 -c 1 -i 28 -a 1 -x {4.0 0.0 11 ------- null}
h -t 0.80888 -s 4 -d 3 -p ack -e 40 -c 1 -i 28 -a 1 -x {4.0 0.0 -1 ------- null}
r -t 0.81072 -s 4 -d 3 -p ack -e 40 -c 1 -i 25 -a 1 -x {4.0 0.0 10 ------- null}
+ -t 0.81072 -s 3 -d 2 -p ack -e 40 -c 1 -i 25 -a 1 -x {4.0 0.0 10 ------- null}
- -t 0.81072 -s 3 -d 2 -p ack -e 40 -c 1 -i 25 -a 1 -x {4.0 0.0 10 ------- null}
h -t 0.81072 -s 3 -d 2 -p ack -e 40 -c 1 -i 25 -a 1 -x {4.0 0.0 -1 ------- null}
r -t 0.81136 -s 2 -d 3 -p tcp -e 1040 -c 1 -i 20 -a 1 -x {0.0 4.0 13 ------- null}
+ -t 0.81136 -s 3 -d 4 -p tcp -e 1040 -c 1 -i 20 -a 1 -x {0.0 4.0 13 ------- null}
- -t 0.81136 -s 3 -d 4 -p tcp -e 1040 -c 1 -i 20 -a 1 -x {0.0 4.0 13 ------- null}
h -t 0.81136 -s 3 -d 4 -p tcp -e 1040 -c 1 -i 20 -a 1 -x {0.0 4.0 -1 ------- null}
r -t 0.81272 -s 3 -d 2 -p ack -e 40 -c 1 -i 24 -a 1 -x {4.0 0.0 9 ------- null}
+ -t 0.81272 -s 2 -d 0 -p ack -e 40 -c 1 -i 24 -a 1 -x {4.0 0.0 9 ------- null}
- -t 0.81272 -s 2 -d 0 -p ack -e 40 -c 1 -i 24 -a 1 -x {4.0 0.0 9 ------- null}
h -t 0.81272 -s 2 -d 0 -p ack -e 40 -c 1 -i 24 -a 1 -x {4.0 0.0 -1 ------- null}
r -t 0.81472 -s 2 -d 0 -p ack -e 40 -c 1 -i 23 -a 1 -x {4.0 0.0 8 ------- null}
+ -t 0.81472 -s 0 -d 2 -p tcp -e 1040 -c 1 -i 29 -a 1 -x {0.0 4.0 17 ------- null}
+ -t 0.81472 -s 0 -d 2 -p tcp -e 1040 -c 1 -i 30 -a 1 -x {0.0 4.0 18 ------- null}
- -t 0.81472 -s 0 -d 2 -p tcp -e 1040 -c 1 -i 27 -a 1 -x {0.0 4.0 16 ------- null}
h -t 0.81472 -s 0 -d 2 -p tcp -e 1040 -c 1 -i 27 -a 1 -x {0.0 4.0 -1 ------- null}
r -t 0.8172 -s 3 -d 4 -p tcp -e 1040 -c 1 -i 19 -a 1 -x {0.0 4.0 12 ------- null}
+ -t 0.8172 -s 4 -d 3 -p ack -e 40 -c 1 -i 31 -a 1 -x {4.0 0.0 12 ------- null}
- -t 0.8172 -s 4 -d 3 -p ack -e 40 -c 1 -i 31 -a 1 -x {4.0 0.0 12 ------- null}
h -t 0.8172 -s 4 -d 3 -p ack -e 40 -c 1 -i 31 -a 1 -x {4.0 0.0 -1 ------- null}
r -t 0.81904 -s 4 -d 3 -p ack -e 40 -c 1 -i 28 -a 1 -x {4.0 0.0 11 ------- null}
+ -t 0.81904 -s 3 -d 2 -p ack -e 40 -c 1 -i 28 -a 1 -x {4.0 0.0 11 ------- null}
- -t 0.81904 -s 3 -d 2 -p ack -e 40 -c 1 -i 28 -a 1 -x {4.0 0.0 11 ------- null}
h -t 0.81904 -s 3 -d 2 -p ack -e 40 -c 1 -i 28 -a 1 -x {4.0 0.0 -1 ------- null}
r -t 0.81968 -s 2 -d 3 -p tcp -e 1040 -c 1 -i 21 -a 1 -x {0.0 4.0 14 ------- null}
+ -t 0.81968 -s 3 -d 4 -p tcp -e 1040 -c 1 -i 21 -a 1 -x {0.0 4.0 14 ------- null}
- -t 0.81968 -s 3 -d 4 -p tcp -e 1040 -c 1 -i 21 -a 1 -x {0.0 4.0 14 ------- null}
h -t 0.81968 -s 3 -d 4 -p tcp -e 1040 -c 1 -i 21 -a 1 -x {0.0 4.0 -1 ------- null}
r -t 0.82104 -s 3 -d 2 -p ack -e 40 -c 1 -i 25 -a 1 -x {4.0 0.0 10 ------- null}
+ -t 0.82104 -s 2 -d 0 -p ack -e 40 -c 1 -i 25 -a 1 -x {4.0 0.0 10 ------- null}
- -t 0.82104 -s 2 -d 0 -p ack -e 40 -c 1 -i 25 -a 1 -x {4.0 0.0 10 ------- null}
h -t 0.82104 -s 2 -d 0 -p ack -e 40 -c 1 -i 25 -a 1 -x {4.0 0.0 -1 ------- null}
r -t 0.82304 -s 2 -d 0 -p ack -e 40 -c 1 -i 24 -a 1 -x {4.0 0.0 9 ------- null}
+ -t 0.82304 -s 0 -d 2 -p tcp -e 1040 -c 1 -i 32 -a 1 -x {0.0 4.0 19 ------- null}
+ -t 0.82304 -s 0 -d 2 -p tcp -e 1040 -c 1 -i 33 -a 1 -x {0.0 4.0 20 ------- null}
- -t 0.82304 -s 0 -d 2 -p tcp -e 1040 -c 1 -i 29 -a 1 -x {0.0 4.0 17 ------- null}
h -t 0.82304 -s 0 -d 2 -p tcp -e 1040 -c 1 -i 29 -a 1 -x {0.0 4.0 -1 ------- null}
r -t 0.82472 -s 0 -d 2 -p tcp -e 1040 -c 1 -i 26 -a 1 -x {0.0 4.0 15 ------- null}
+ -t 0.82472 -s 2 -d 3 -p tcp -e 1040 -c 1 -i 26 -a 1 -x {0.0 4.0 15 ------- null}
- -t 0.82472 -s 2 -d 3 -p tcp -e 1040 -c 1 -i 26 -a 1 -x {0.0 4.0 15 ------- null}
h -t 0.82472 -s 2 -d 3 -p tcp -e 1040 -c 1 -i 26 -a 1 -x {0.0 4.0 -1 ------- null}
r -t 0.82552 -s 3 -d 4 -p tcp -e 1040 -c 1 -i 20 -a 1 -x {0.0 4.0 13 ------- null}
+ -t 0.82552 -s 4 -d 3 -p ack -e 40 -c 1 -i 34 -a 1 -x {4.0 0.0 13 ------- null}
- -t 0.82552 -s 4 -d 3 -p ack -e 40 -c 1 -i 34 -a 1 -x {4.0 0.0 13 ------- null}
h -t 0.82552 -s 4 -d 3 -p ack -e 40 -c 1 -i 34 -a 1 -x {4.0 0.0 -1 ------- null}
r -t 0.82736 -s 4 -d 3 -p ack -e 40 -c 1 -i 31 -a 1 -x {4.0 0.0 12 ------- null}
+ -t 0.82736 -s 3 -d 2 -p ack -e 40 -c 1 -i 31 -a 1 -x {4.0 0.0 12 ------- null}
- -t 0.82736 -s 3 -d 2 -p ack -e 40 -c 1 -i 31 -a 1 -x {4.0 0.0 12 ------- null}
h -t 0.82736 -s 3 -d 2 -p ack -e 40 -c 1 -i 31 -a 1 -x {4.0 0.0 -1 ------- null}
r -t 0.82936 -s 3 -d 2 -p ack -e 40 -c 1 -i 28 -a 1 -x {4.0 0.0 11 ------- null}
+ -t 0.82936 -s 2 -d 0 -p ack -e 40 -c 1 -i 28 -a 1 -x {4.0 0.0 11 ------- null}
- -t 0.82936 -s 2 -d 0 -p ack -e 40 -c 1 -i 28 -a 1 -x {4.0 0.0 11 ------- null}
h -t 0.82936 -s 2 -d 0 -p ack -e 40 -c 1 -i 28 -a 1 -x {4.0 0.0 -1 ------- null}
r -t 0.83136 -s 2 -d 0 -p ack -e 40 -c 1 -i 25 -a 1 -x {4.0 0.0 10 ------- null}
+ -t 0.83136 -s 0 -d 2 -p tcp -e 1040 -c 1 -i 35 -a 1 -x {0.0 4.0 21 ------- null}
+ -t 0.83136 -s 0 -d 2 -p tcp -e 1040 -c 1 -i 36 -a 1 -x {0.0 4.0 22 ------- null}
- -t 0.83136 -s 0 -d 2 -p tcp -e 1040 -c 1 -i 30 -a 1 -x {0.0 4.0 18 ------- null}
h -t 0.83136 -s 0 -d 2 -p tcp -e 1040 -c 1 -i 30 -a 1 -x {0.0 4.0 -1 ------- null}
r -t 0.83304 -s 0 -d 2 -p tcp -e 1040 -c 1 -i 27 -a 1 -x {0.0 4.0 16 ------- null}
+ -t 0.83304 -s 2 -d 3 -p tcp -e 1040 -c 1 -i 27 -a 1 -x {0.0 4.0 16 ------- null}
- -t 0.83304 -s 2 -d 3 -p tcp -e 1040 -c 1 -i 27 -a 1 -x {0.0 4.0 16 ------- null}
h -t 0.83304 -s 2 -d 3 -p tcp -e 1040 -c 1 -i 27 -a 1 -x {0.0 4.0 -1 ------- null}
r -t 0.83384 -s 3 -d 4 -p tcp -e 1040 -c 1 -i 21 -a 1 -x {0.0 4.0 14 ------- null}
+ -t 0.83384 -s 4 -d 3 -p ack -e 40 -c 1 -i 37 -a 1 -x {4.0 0.0 14 ------- null}
- -t 0.83384 -s 4 -d 3 -p ack -e 40 -c 1 -i 37 -a 1 -x {4.0 0.0 14 ------- null}
h -t 0.83384 -s 4 -d 3 -p ack -e 40 -c 1 -i 37 -a 1 -x {4.0 0.0 -1 ------- null}