+ 0.52064 3 4 tcp 40 ------- 1 0.0 4.0 0 0
- 0.52064 3 4 tcp 40 ------- 1 0.0 4.0 0 0
r 0.5308 3 4 tcp 40 ------- 1 0.0 4.0 0 0
+ 0.59824 3 4 tcp 1040 ------- 1 0.0 4.0 1 2
- 0.59824 3 4 tcp 1040 ------- 1 0.0 4.0 1 2
+ 0.60656 3 4 tcp 1040 ------- 1 0.0 4.0 2 3
- 0.60656 3 4 tcp 1040 ------- 1 0.0 4.0 2 3
r 0.6124 3 4 tcp 1040 ------- 1 0.0 4.0 1 2
r 0.62072 3 4 tcp 1040 ------- 1 0.0 4.0 2 3
+ 0.67984 3 4 tcp 1040 ------- 1 0.0 4.0 3 6
- 0.67984 3 4 tcp 1040 ------- 1 0.0 4.0 3 6
+ 0.68816 3 4 tcp 1040 ------- 1 0.0 4.0 4 7
- 0.68816 3 4 tcp 1040 ------- 1 0.0 4.0 4 7
r 0.694 3 4 tcp 1040 ------- 1 0.0 4.0 3 6
+ 0.69648 3 4 tcp 1040 ------- 1 0.0 4.0 5 8
- 0.69648 3 4 tcp 1040 ------- 1 0.0 4.0 5 8
r 0.70232 3 4 tcp 1040 ------- 1 0.0 4.0 4 7
+ 0.7048 3 4 tcp 1040 ------- 1 0.0 4.0 6 9
- 0.7048 3 4 tcp 1040 ------- 1 0.0 4.0 6 9
r 0.71064 3 4 tcp 1040 ------- 1 0.0 4.0 5 8
r 0.71896 3 4 tcp 1040 ------- 1 0.0 4.0 6 9
+ 0.76144 3 4 tcp 1040 ------- 1 0.0 4.0 7 14
- 0.76144 3 4 tcp 1040 ------- 1 0.0 4.0 7 14
+ 0.76976 3 4 tcp 1040 ------- 1 0.0 4.0 8 15
- 0.76976 3 4 tcp 1040 ------- 1 0.0 4.0 8 15
r 0.7756 3 4 tcp 1040 ------- 1 0.0 4.0 7 14
+ 0.77808 3 4 tcp 1040 ------- 1 0.0 4.0 9 16
- 0.77808 3 4 tcp 1040 ------- 1 0.0 4.0 9 16
r 0.78392 3 4 tcp 1040 ------- 1 0.0 4.0 8 15
+ 0.7864 3 4 tcp 1040 ------- 1 0.0 4.0 10 17
- 0.7864 3 4 tcp 1040 ------- 1 0.0 4.0 10 17
r 0.79224 3 4 tcp 1040 ------- 1 0.0 4.0 9 16
+ 0.79472 3 4 tcp 1040 ------- 1 0.0 4.0 11 18
- 0.79472 3 4 tcp 1040 ------- 1 0.0 4.0 11 18
r 0.80056 3 4 tcp 1040 ------- 1 0.0 4.0 10 17
+ 0.80304 3 4 tcp 1040 ------- 1 0.0 4.0 12 19
- 0.80304 3 4 tcp 1040 ------- 1 0.0 4.0 12 19
r 0.80888 3 4 tcp 1040 ------- 1 0.0 4.0 11 18
+ 0.81136 3 4 tcp 1040 ------- 1 0.0 4.0 13 20
- 0.81136 3 4 tcp 1040 ------- 1 0.0 4.0 13 20
r 0.8172 3 4 tcp 1040 ------- 1 0.0 4.0 12 19
+ 0.81968 3 4 tcp 1040 ------- 1 0.0 4.0 14 21
- 0.81968 3 4 tcp 1040 ------- 1 0.0 4.0 14 21
r 0.82552 3 4 tcp 1040 ------- 1 0.0 4.0 13 20
r 0.83384 3 4 tcp 1040 ------- 1 0.0 4.0 14 21
+ 0.84304 3 4 tcp 1040 ------- 1 0.0 4.0 15 26
- 0.84304 3 4 tcp 1040 ------- 1 0.0 4.0 15 26
+ 0.85136 3 4 tcp 1040 ------- 1 0.0 4.0 16 27
- 0.85136 3 4 tcp 1040 ------- 1 0.0 4.0 16 27
r 0.8572 3 4 tcp 1040 ------- 1 0.0 4.0 15 26
+ 0.85968 3 4 tcp 1040 ------- 1 0.0 4.0 17 29
- 0.85968 3 4 tcp 1040 ------- 1 0.0 4.0 17 29
r 0.86552 3 4 tcp 1040 ------- 1 0.0 4.0 16 27
+ 0.868 3 4 tcp 1040 ------- 1 0.0 4.0 18 30
- 0.868 3 4 tcp 1040 ------- 1 0.0 4.0 18 30
r 0.87384 3 4 tcp 1040 ------- 1 0.0 4.0 17 29
+ 0.87632 3 4 tcp 1040 ------- 1 0.0 4.0 19 32
- 0.87632 3 4 tcp 1040 ------- 1 0.0 4.0 19 32
r 0.88216 3 4 tcp 1040 ------- 1 0.0 4.0 18 30
+ 0.88464 3 4 tcp 1040 ------- 1 0.0 4.0 20 33
- 0.88464 3 4 tcp 1040 ------- 1 0.0 4.0 20 33
r 0.89048 3 4 tcp 1040 ------- 1 0.0 4.0 19 32
+ 0.89296 3 4 tcp 1040 ------- 1 0.0 4.0 21 35
- 0.89296 3 4 tcp 1040 ------- 1 0.0 4.0 21 35
r 0.8988 3 4 tcp 1040 ------- 1 0.0 4.0 20 33
+ 0.90128 3 4 tcp 1040 ------- 1 0.0 4.0 22 36
- 0.90128 3 4 tcp 1040 ------- 1 0.0 4.0 22 36
r 0.90712 3 4 tcp 1040 ------- 1 0.0 4.0 21 35
+ 0.9096 3 4 tcp 1040 ------- 1 0.0 4.0 23 38
- 0.9096 3 4 tcp 1040 ------- 1 0.0 4.0 23 38
r 0.91544 3 4 tcp 1040 ------- 1 0.0 4.0 22 36
+ 0.91792 3 4 tcp 1040 ------- 1 0.0 4.0 24 39
- 0.91792 3 4 tcp 1040 ------- 1 0.0 4.0 24 39
r 0.92376 3 4 tcp 1040 ------- 1 0.0 4.0 23 38
+ 0.92624 3 4 tcp 1040 ------- 1 0.0 4.0 25 40
- 0.92624 3 4 tcp 1040 ------- 1 0.0 4.0 25 40
r 0.93208 3 4 tcp 1040 ------- 1 0.0 4.0 24 39
+ 0.93456 3 4 tcp 1040 ------- 1 0.0 4.0 26 41
- 0.93456 3 4 tcp 1040 ------- 1 0.0 4.0 26 41
r 0.9404 3 4 tcp 1040 ------- 1 0.0 4.0 25 40
+ 0.94288 3 4 tcp 1040 ------- 1 0.0 4.0 27 42
- 0.94288 3 4 tcp 1040 ------- 1 0.0 4.0 27 42
r 0.94872 3 4 tcp 1040 ------- 1 0.0 4.0 26 41
+ 0.9512 3 4 tcp 1040 ------- 1 0.0 4.0 28 43
- 0.9512 3 4 tcp 1040 ------- 1 0.0 4.0 28 43
r 0.95704 3 4 tcp 1040 ------- 1 0.0 4.0 27 42
+ 0.95952 3 4 tcp 1040 ------- 1 0.0 4.0 29 45
- 0.95952 3 4 tcp 1040 ------- 1 0.0 4.0 29 45
r 0.96536 3 4 tcp 1040 ------- 1 0.0 4.0 28 43
+ 0.96784 3 4 tcp 1040 ------- 1 0.0 4.0 30 46
- 0.96784 3 4 tcp 1040 ------- 1 0.0 4.0 30 46
r 0.97368 3 4 tcp 1040 ------- 1 0.0 4.0 29 45
+ 0.97616 3 4 tcp 1040 ------- 1 0.0 4.0 31 50
- 0.97616 3 4 tcp 1040 ------- 1 0.0 4.0 31 50
r 0.982 3 4 tcp 1040 ------- 1 0.0 4.0 30 46
+ 0.98448 3 4 tcp 1040 ------- 1 0.0 4.0 32 51
- 0.98448 3 4 tcp 1040 ------- 1 0.0 4.0 32 51
r 0.99032 3 4 tcp 1040 ------- 1 0.0 4.0 31 50
+ 0.9928 3 4 tcp 1040 ------- 1 0.0 4.0 33 53
- 0.9928 3 4 tcp 1040 ------- 1 0.0 4.0 33 53
r 0.99864 3 4 tcp 1040 ------- 1 0.0 4.0 32 51
+ 1.00112 3 4 tcp 1040 ------- 1 0.0 4.0 34 54
- 1.00112 3 4 tcp 1040 ------- 1 0.0 4.0 34 54
r 1.00696 3 4 tcp 1040 ------- 1 0.0 4.0 33 53
+ 1.00944 3 4 tcp 1040 ------- 1 0.0 4.0 35 56
- 1.00944 3 4 tcp 1040 ------- 1 0.0 4.0 35 56
r 1.01528 3 4 tcp 1040 ------- 1 0.0 4.0 34 54
+ 1.01776 3 4 tcp 1040 ------- 1 0.0 4.0 36 57
- 1.01776 3 4 tcp 1040 ------- 1 0.0 4.0 36 57
r 1.0236 3 4 tcp 1040 ------- 1 0.0 4.0 35 56
+ 1.02608 3 4 tcp 1040 ------- 1 0.0 4.0 37 59
- 1.02608 3 4 tcp 1040 ------- 1 0.0 4.0 37 59
r 1.03192 3 4 tcp 1040 ------- 1 0.0 4.0 36 57
+ 1.0344 3 4 tcp 1040 ------- 1 0.0 4.0 38 60
- 1.0344 3 4 tcp 1040 ------- 1 0.0 4.0 38 60
r 1.04024 3 4 tcp 1040 ------- 1 0.0 4.0 37 59
r 1.04856 3 4 tcp 1040 ------- 1 0.0 4.0 38 60
+ 1.05072 3 4 tcp 1040 ------- 1 0.0 4.0 39 62
- 1.05072 3 4 tcp 1040 ------- 1 0.0 4.0 39 62
r 1.06488 3 4 tcp 1040 ------- 1 0.0 4.0 39 62
+ 1.06704 3 4 tcp 1040 ------- 1 0.0 4.0 40 64
- 1.06704 3 4 tcp 1040 ------- 1 0.0 4.0 40 64
r 1.0812 3 4 tcp 1040 ------- 1 0.0 4.0 40 64
+ 1.08336 3 4 tcp 1040 ------- 1 0.0 4.0 41 66
- 1.08336 3 4 tcp 1040 ------- 1 0.0 4.0 41 66
r 1.09752 3 4 tcp 1040 ------- 1 0.0 4.0 41 66
+ 1.09968 3 4 tcp 1040 ------- 1 0.0 4.0 42 68
- 1.09968 3 4 tcp 1040 ------- 1 0.0 4.0 42 68
r 1.11384 3 4 tcp 1040 ------- 1 0.0 4.0 42 68
+ 1.116 3 4 tcp 1040 ------- 1 0.0 4.0 43 70
- 1.116 3 4 tcp 1040 ------- 1 0.0 4.0 43 70
r 1.13016 3 4 tcp 1040 ------- 1 0.0 4.0 43 70
+ 1.13232 3 4 tcp 1040 ------- 1 0.0 4.0 44 72
- 1.13232 3 4 tcp 1040 ------- 1 0.0 4.0 44 72
r 1.14648 3 4 tcp 1040 ------- 1 0.0 4.0 44 72
+ 1.15664 3 4 tcp 1040 ------- 1 0.0 4.0 45 74
- 1.15664 3 4 tcp 1040 ------- 1 0.0 4.0 45 74
r 1.1708 3 4 tcp 1040 ------- 1 0.0 4.0 45 74
+ 1.17296 3 4 tcp 1040 ------- 1 0.0 4.0 46 76
- 1.17296 3 4 tcp 1040 ------- 1 0.0 4.0 46 76
r 1.18712 3 4 tcp 1040 ------- 1 0.0 4.0 46 76
+ 1.19728 3 4 tcp 1040 ------- 1 0.0 4.0 49 83
- 1.19728 3 4 tcp 1040 ------- 1 0.0 4.0 49 83
+ 1.2056 3 4 tcp 1040 ------- 1 0.0 4.0 50 86
- 1.2056 3 4 tcp 1040 ------- 1 0.0 4.0 50 86
r 1.21144 3 4 tcp 1040 ------- 1 0.0 4.0 49 83
+ 1.21392 3 4 tcp 1040 ------- 1 0.0 4.0 51 89
- 1.21392 3 4 tcp 1040 ------- 1 0.0 4.0 51 89
r 1.21976 3 4 tcp 1040 ------- 1 0.0 4.0 50 86
+ 1.22224 3 4 tcp 1040 ------- 1 0.0 4.0 52 92
- 1.22224 3 4 tcp 1040 ------- 1 0.0 4.0 52 92
r 1.22808 3 4 tcp 1040 ------- 1 0.0 4.0 51 89
+ 1.23056 3 4 tcp 1040 ------- 1 0.0 4.0 53 95
- 1.23056 3 4 tcp 1040 ------- 1 0.0 4.0 53 95
r 1.2364 3 4 tcp 1040 ------- 1 0.0 4.0 52 92
+ 1.23888 3 4 tcp 1040 ------- 1 0.0 4.0 54 98
- 1.23888 3 4 tcp 1040 ------- 1 0.0 4.0 54 98
r 1.24472 3 4 tcp 1040 ------- 1 0.0 4.0 53 95
+ 1.2472 3 4 tcp 1040 ------- 1 0.0 4.0 55 101
- 1.2472 3 4 tcp 1040 ------- 1 0.0 4.0 55 101
r 1.25304 3 4 tcp 1040 ------- 1 0.0 4.0 54 98
+ 1.25552 3 4 tcp 1040 ------- 1 0.0 4.0 56 103
- 1.25552 3 4 tcp 1040 ------- 1 0.0 4.0 56 103
r 1.26136 3 4 tcp 1040 ------- 1 0.0 4.0 55 101
+ 1.26384 3 4 tcp 1040 ------- 1 0.0 4.0 57 106
- 1.26384 3 4 tcp 1040 ------- 1 0.0 4.0 57 106
r 1.26968 3 4 tcp 1040 ------- 1 0.0 4.0 56 103
+ 1.27216 3 4 tcp 1040 ------- 1 0.0 4.0 58 108
- 1.27216 3 4 tcp 1040 ------- 1 0.0 4.0 58 108
r 1.278 3 4 tcp 1040 ------- 1 0.0 4.0 57 106
+ 1.28048 3 4 tcp 1040 ------- 1 0.0 4.0 59 112
- 1.28048 3 4 tcp 1040 ------- 1 0.0 4.0 59 112
r 1.28632 3 4 tcp 1040 ------- 1 0.0 4.0 58 108
+ 1.2888 3 4 tcp 1040 ------- 1 0.0 4.0 60 116
- 1.2888 3 4 tcp 1040 ------- 1 0.0 4.0 60 116
r 1.29464 3 4 tcp 1040 ------- 1 0.0 4.0 59 112
+ 1.29712 3 4 tcp 1040 ------- 1 0.0 4.0 61 121
- 1.29712 3 4 tcp 1040 ------- 1 0.0 4.0 61 121
r 1.30296 3 4 tcp 1040 ------- 1 0.0 4.0 60 116
+ 1.30544 3 4 tcp 1040 ------- 1 0.0 4.0 62 125
- 1.30544 3 4 tcp 1040 ------- 1 0.0 4.0 62 125
r 1.31128 3 4 tcp 1040 ------- 1 0.0 4.0 61 121
+ 1.31376 3 4 tcp 1040 ------- 1 0.0 4.0 63 129
- 1.31376 3 4 tcp 1040 ------- 1 0.0 4.0 63 129
r 1.3196 3 4 tcp 1040 ------- 1 0.0 4.0 62 125
+ 1.32208 3 4 tcp 1040 ------- 1 0.0 4.0 64 133
- 1.32208 3 4 tcp 1040 ------- 1 0.0 4.0 64 133
r 1.32792 3 4 tcp 1040 ------- 1 0.0 4.0 63 129
+ 1.3304 3 4 tcp 1040 ------- 1 0.0 4.0 65 138
- 1.3304 3 4 tcp 1040 ------- 1 0.0 4.0 65 138
r 1.33624 3 4 tcp 1040 ------- 1 0.0 4.0 64 133
+ 1.33872 3 4 tcp 1040 ------- 1 0.0 4.0 66 142
- 1.33872 3 4 tcp 1040 ------- 1 0.0 4.0 66 142
r 1.34456 3 4 tcp 1040 ------- 1 0.0 4.0 65 138
r 1.35288 3 4 tcp 1040 ------- 1 0.0 4.0 66 142
+ 1.58704 3 4 tcp 1040 ---A--- 1 0.0 4.0 47 193
- 1.58704 3 4 tcp 1040 ---A--- 1 0.0 4.0 47 193
r 1.6012 3 4 tcp 1040 ---A--- 1 0.0 4.0 47 193
+ 4.74864 3 4 tcp 1040 ---A--- 1 0.0 4.0 48 452
- 4.74864 3 4 tcp 1040 ---A--- 1 0.0 4.0 48 452
r 4.7628 3 4 tcp 1040 ---A--- 1 0.0 4.0 48 452
+ 4.83024 3 4 tcp 1040 ------- 1 0.0 4.0 67 454
- 4.83024 3 4 tcp 1040 ------- 1 0.0 4.0 67 454
+ 4.83856 3 4 tcp 1040 ------- 1 0.0 4.0 68 455
- 4.83856 3 4 tcp 1040 ------- 1 0.0 4.0 68 455
r 4.8444 3 4 tcp 1040 ------- 1 0.0 4.0 67 454
r 4.85272 3 4 tcp 1040 ------- 1 0.0 4.0 68 455
+ 4.91184 3 4 tcp 1040 ------- 1 0.0 4.0 69 458
- 4.91184 3 4 tcp 1040 ------- 1 0.0 4.0 69 458
+ 4.92016 3 4 tcp 1040 ------- 1 0.0 4.0 70 459
- 4.92016 3 4 tcp 1040 ------- 1 0.0 4.0 70 459
r 4.926 3 4 tcp 1040 ------- 1 0.0 4.0 69 458
r 4.93432 3 4 tcp 1040 ------- 1 0.0 4.0 70 459
+ 4.99344 3 4 tcp 1040 ------- 1 0.0 4.0 71 462
- 4.99344 3 4 tcp 1040 ------- 1 0.0 4.0 71 462
