+ 0.520448 3 4 tcp 40 ------- 1 0.0 4.0 0 0
- 0.520448 3 4 tcp 40 ------- 1 0.0 4.0 0 0
r 0.530608 3 4 tcp 40 ------- 1 0.0 4.0 0 0
+ 0.592864 3 4 tcp 1040 ------- 1 0.0 4.0 1 2
- 0.592864 3 4 tcp 1040 ------- 1 0.0 4.0 1 2
+ 0.601184 3 4 tcp 1040 ------- 1 0.0 4.0 2 3
- 0.601184 3 4 tcp 1040 ------- 1 0.0 4.0 2 3
r 0.607024 3 4 tcp 1040 ------- 1 0.0 4.0 1 2
r 0.615344 3 4 tcp 1040 ------- 1 0.0 4.0 2 3
+ 0.66928 3 4 tcp 1040 ------- 1 0.0 4.0 3 6
- 0.66928 3 4 tcp 1040 ------- 1 0.0 4.0 3 6
+ 0.6776 3 4 tcp 1040 ------- 1 0.0 4.0 4 7
- 0.6776 3 4 tcp 1040 ------- 1 0.0 4.0 4 7
r 0.68344 3 4 tcp 1040 ------- 1 0.0 4.0 3 6
+ 0.68592 3 4 tcp 1040 ------- 1 0.0 4.0 5 8
- 0.68592 3 4 tcp 1040 ------- 1 0.0 4.0 5 8
r 0.69176 3 4 tcp 1040 ------- 1 0.0 4.0 4 7
+ 0.69424 3 4 tcp 1040 ------- 1 0.0 4.0 6 9
- 0.69424 3 4 tcp 1040 ------- 1 0.0 4.0 6 9
r 0.70008 3 4 tcp 1040 ------- 1 0.0 4.0 5 8
r 0.7084 3 4 tcp 1040 ------- 1 0.0 4.0 6 9
+ 0.745696 3 4 tcp 1040 ------- 1 0.0 4.0 7 14
- 0.745696 3 4 tcp 1040 ------- 1 0.0 4.0 7 14
+ 0.754016 3 4 tcp 1040 ------- 1 0.0 4.0 8 15
- 0.754016 3 4 tcp 1040 ------- 1 0.0 4.0 8 15
r 0.759856 3 4 tcp 1040 ------- 1 0.0 4.0 7 14
+ 0.762336 3 4 tcp 1040 ------- 1 0.0 4.0 9 16
- 0.762336 3 4 tcp 1040 ------- 1 0.0 4.0 9 16
r 0.768176 3 4 tcp 1040 ------- 1 0.0 4.0 8 15
+ 0.770656 3 4 tcp 1040 ------- 1 0.0 4.0 10 17
- 0.770656 3 4 tcp 1040 ------- 1 0.0 4.0 10 17
r 0.776496 3 4 tcp 1040 ------- 1 0.0 4.0 9 16
+ 0.778976 3 4 tcp 1040 ------- 1 0.0 4.0 11 18
- 0.778976 3 4 tcp 1040 ------- 1 0.0 4.0 11 18
r 0.784816 3 4 tcp 1040 ------- 1 0.0 4.0 10 17
+ 0.787296 3 4 tcp 1040 ------- 1 0.0 4.0 12 19
- 0.787296 3 4 tcp 1040 ------- 1 0.0 4.0 12 19
r 0.793136 3 4 tcp 1040 ------- 1 0.0 4.0 11 18
+ 0.795616 3 4 tcp 1040 ------- 1 0.0 4.0 13 20
- 0.795616 3 4 tcp 1040 ------- 1 0.0 4.0 13 20
r 0.801456 3 4 tcp 1040 ------- 1 0.0 4.0 12 19
+ 0.803936 3 4 tcp 1040 ------- 1 0.0 4.0 14 21
- 0.803936 3 4 tcp 1040 ------- 1 0.0 4.0 14 21
r 0.809776 3 4 tcp 1040 ------- 1 0.0 4.0 13 20
r 0.818096 3 4 tcp 1040 ------- 1 0.0 4.0 14 21
+ 0.822112 3 4 tcp 1040 ------- 1 0.0 4.0 15 26
- 0.822112 3 4 tcp 1040 ------- 1 0.0 4.0 15 26
+ 0.830432 3 4 tcp 1040 ------- 1 0.0 4.0 16 27
- 0.830432 3 4 tcp 1040 ------- 1 0.0 4.0 16 27
r 0.836272 3 4 tcp 1040 ------- 1 0.0 4.0 15 26
+ 0.838752 3 4 tcp 1040 ------- 1 0.0 4.0 17 29
- 0.838752 3 4 tcp 1040 ------- 1 0.0 4.0 17 29
r 0.844592 3 4 tcp 1040 ------- 1 0.0 4.0 16 27
+ 0.847072 3 4 tcp 1040 ------- 1 0.0 4.0 18 30
- 0.847072 3 4 tcp 1040 ------- 1 0.0 4.0 18 30
r 0.852912 3 4 tcp 1040 ------- 1 0.0 4.0 17 29
+ 0.855392 3 4 tcp 1040 ------- 1 0.0 4.0 19 32
- 0.855392 3 4 tcp 1040 ------- 1 0.0 4.0 19 32
r 0.861232 3 4 tcp 1040 ------- 1 0.0 4.0 18 30
+ 0.863712 3 4 tcp 1040 ------- 1 0.0 4.0 20 33
- 0.863712 3 4 tcp 1040 ------- 1 0.0 4.0 20 33
r 0.869552 3 4 tcp 1040 ------- 1 0.0 4.0 19 32
+ 0.872032 3 4 tcp 1040 ------- 1 0.0 4.0 21 35
- 0.872032 3 4 tcp 1040 ------- 1 0.0 4.0 21 35
r 0.877872 3 4 tcp 1040 ------- 1 0.0 4.0 20 33
+ 0.880352 3 4 tcp 1040 ------- 1 0.0 4.0 22 36
- 0.880352 3 4 tcp 1040 ------- 1 0.0 4.0 22 36
r 0.886192 3 4 tcp 1040 ------- 1 0.0 4.0 21 35
+ 0.888672 3 4 tcp 1040 ------- 1 0.0 4.0 23 38
- 0.888672 3 4 tcp 1040 ------- 1 0.0 4.0 23 38
r 0.894512 3 4 tcp 1040 ------- 1 0.0 4.0 22 36
+ 0.896992 3 4 tcp 1040 ------- 1 0.0 4.0 24 39
- 0.896992 3 4 tcp 1040 ------- 1 0.0 4.0 24 39
r 0.902832 3 4 tcp 1040 ------- 1 0.0 4.0 23 38
+ 0.905312 3 4 tcp 1040 ------- 1 0.0 4.0 25 40
- 0.905312 3 4 tcp 1040 ------- 1 0.0 4.0 25 40
r 0.911152 3 4 tcp 1040 ------- 1 0.0 4.0 24 39
+ 0.913632 3 4 tcp 1040 ------- 1 0.0 4.0 26 41
- 0.913632 3 4 tcp 1040 ------- 1 0.0 4.0 26 41
r 0.919472 3 4 tcp 1040 ------- 1 0.0 4.0 25 40
+ 0.921952 3 4 tcp 1040 ------- 1 0.0 4.0 27 43
- 0.921952 3 4 tcp 1040 ------- 1 0.0 4.0 27 43
r 0.927792 3 4 tcp 1040 ------- 1 0.0 4.0 26 41
+ 0.930272 3 4 tcp 1040 ------- 1 0.0 4.0 28 44
- 0.930272 3 4 tcp 1040 ------- 1 0.0 4.0 28 44
r 0.936112 3 4 tcp 1040 ------- 1 0.0 4.0 27 43
+ 0.938592 3 4 tcp 1040 ------- 1 0.0 4.0 29 46
- 0.938592 3 4 tcp 1040 ------- 1 0.0 4.0 29 46
r 0.944432 3 4 tcp 1040 ------- 1 0.0 4.0 28 44
+ 0.946912 3 4 tcp 1040 ------- 1 0.0 4.0 30 47
- 0.946912 3 4 tcp 1040 ------- 1 0.0 4.0 30 47
r 0.952752 3 4 tcp 1040 ------- 1 0.0 4.0 29 46
+ 0.955232 3 4 tcp 1040 ------- 1 0.0 4.0 31 50
- 0.955232 3 4 tcp 1040 ------- 1 0.0 4.0 31 50
r 0.961072 3 4 tcp 1040 ------- 1 0.0 4.0 30 47
+ 0.963552 3 4 tcp 1040 ------- 1 0.0 4.0 32 51
- 0.963552 3 4 tcp 1040 ------- 1 0.0 4.0 32 51
r 0.969392 3 4 tcp 1040 ------- 1 0.0 4.0 31 50
+ 0.971872 3 4 tcp 1040 ------- 1 0.0 4.0 33 53
- 0.971872 3 4 tcp 1040 ------- 1 0.0 4.0 33 53
r 0.977712 3 4 tcp 1040 ------- 1 0.0 4.0 32 51
+ 0.980192 3 4 tcp 1040 ------- 1 0.0 4.0 34 54
- 0.980192 3 4 tcp 1040 ------- 1 0.0 4.0 34 54
r 0.986032 3 4 tcp 1040 ------- 1 0.0 4.0 33 53
+ 0.988512 3 4 tcp 1040 ------- 1 0.0 4.0 35 56
- 0.988512 3 4 tcp 1040 ------- 1 0.0 4.0 35 56
r 0.994352 3 4 tcp 1040 ------- 1 0.0 4.0 34 54
+ 0.996832 3 4 tcp 1040 ------- 1 0.0 4.0 36 57
- 0.996832 3 4 tcp 1040 ------- 1 0.0 4.0 36 57
r 1.002672 3 4 tcp 1040 ------- 1 0.0 4.0 35 56
+ 1.005152 3 4 tcp 1040 ------- 1 0.0 4.0 37 59
- 1.005152 3 4 tcp 1040 ------- 1 0.0 4.0 37 59
r 1.010992 3 4 tcp 1040 ------- 1 0.0 4.0 36 57
+ 1.013472 3 4 tcp 1040 ------- 1 0.0 4.0 38 60
- 1.013472 3 4 tcp 1040 ------- 1 0.0 4.0 38 60
r 1.019312 3 4 tcp 1040 ------- 1 0.0 4.0 37 59
+ 1.021792 3 4 tcp 1040 ------- 1 0.0 4.0 39 62
- 1.021792 3 4 tcp 1040 ------- 1 0.0 4.0 39 62
r 1.027632 3 4 tcp 1040 ------- 1 0.0 4.0 38 60
+ 1.030112 3 4 tcp 1040 ------- 1 0.0 4.0 40 64
- 1.030112 3 4 tcp 1040 ------- 1 0.0 4.0 40 64
r 1.035952 3 4 tcp 1040 ------- 1 0.0 4.0 39 62
+ 1.038432 3 4 tcp 1040 ------- 1 0.0 4.0 41 66
- 1.038432 3 4 tcp 1040 ------- 1 0.0 4.0 41 66
r 1.044272 3 4 tcp 1040 ------- 1 0.0 4.0 40 64
+ 1.046752 3 4 tcp 1040 ------- 1 0.0 4.0 42 68
- 1.046752 3 4 tcp 1040 ------- 1 0.0 4.0 42 68
r 1.052592 3 4 tcp 1040 ------- 1 0.0 4.0 41 66
+ 1.055072 3 4 tcp 1040 ------- 1 0.0 4.0 43 70
- 1.055072 3 4 tcp 1040 ------- 1 0.0 4.0 43 70
r 1.060912 3 4 tcp 1040 ------- 1 0.0 4.0 42 68
+ 1.066528 3 4 tcp 1040 ------- 1 0.0 4.0 44 72
- 1.066528 3 4 tcp 1040 ------- 1 0.0 4.0 44 72
r 1.069232 3 4 tcp 1040 ------- 1 0.0 4.0 43 70
+ 1.074528 3 4 tcp 1040 ------- 1 0.0 4.0 45 74
- 1.074528 3 4 tcp 1040 ------- 1 0.0 4.0 45 74
r 1.080688 3 4 tcp 1040 ------- 1 0.0 4.0 44 72
+ 1.082528 3 4 tcp 1040 ------- 1 0.0 4.0 46 76
- 1.082528 3 4 tcp 1040 ------- 1 0.0 4.0 46 76
r 1.088688 3 4 tcp 1040 ------- 1 0.0 4.0 45 74
+ 1.090528 3 4 tcp 1040 ------- 1 0.0 4.0 47 78
- 1.090528 3 4 tcp 1040 ------- 1 0.0 4.0 47 78
r 1.096688 3 4 tcp 1040 ------- 1 0.0 4.0 46 76
+ 1.098528 3 4 tcp 1040 ------- 1 0.0 4.0 48 80
- 1.098528 3 4 tcp 1040 ------- 1 0.0 4.0 48 80
r 1.104688 3 4 tcp 1040 ------- 1 0.0 4.0 47 78
+ 1.106528 3 4 tcp 1040 ------- 1 0.0 4.0 49 82
- 1.106528 3 4 tcp 1040 ------- 1 0.0 4.0 49 82
r 1.112688 3 4 tcp 1040 ------- 1 0.0 4.0 48 80
+ 1.114528 3 4 tcp 1040 ------- 1 0.0 4.0 50 84
- 1.114528 3 4 tcp 1040 ------- 1 0.0 4.0 50 84
r 1.120688 3 4 tcp 1040 ------- 1 0.0 4.0 49 82
+ 1.122528 3 4 tcp 1040 ------- 1 0.0 4.0 51 86
- 1.122528 3 4 tcp 1040 ------- 1 0.0 4.0 51 86
r 1.128688 3 4 tcp 1040 ------- 1 0.0 4.0 50 84
+ 1.130528 3 4 tcp 1040 ------- 1 0.0 4.0 52 90
- 1.130528 3 4 tcp 1040 ------- 1 0.0 4.0 52 90
r 1.136688 3 4 tcp 1040 ------- 1 0.0 4.0 51 86
+ 1.138528 3 4 tcp 1040 ------- 1 0.0 4.0 53 93
- 1.138528 3 4 tcp 1040 ------- 1 0.0 4.0 53 93
r 1.144688 3 4 tcp 1040 ------- 1 0.0 4.0 52 90
+ 1.146592 3 4 tcp 1040 ------- 1 0.0 4.0 54 96
- 1.146592 3 4 tcp 1040 ------- 1 0.0 4.0 54 96
r 1.152688 3 4 tcp 1040 ------- 1 0.0 4.0 53 93
+ 1.154912 3 4 tcp 1040 ------- 1 0.0 4.0 55 99
- 1.154912 3 4 tcp 1040 ------- 1 0.0 4.0 55 99
r 1.160752 3 4 tcp 1040 ------- 1 0.0 4.0 54 96
+ 1.163232 3 4 tcp 1040 ------- 1 0.0 4.0 56 102
- 1.163232 3 4 tcp 1040 ------- 1 0.0 4.0 56 102
r 1.169072 3 4 tcp 1040 ------- 1 0.0 4.0 55 99
+ 1.171552 3 4 tcp 1040 ------- 1 0.0 4.0 57 105
- 1.171552 3 4 tcp 1040 ------- 1 0.0 4.0 57 105
r 1.177392 3 4 tcp 1040 ------- 1 0.0 4.0 56 102
+ 1.179872 3 4 tcp 1040 ------- 1 0.0 4.0 58 108
- 1.179872 3 4 tcp 1040 ------- 1 0.0 4.0 58 108
r 1.185712 3 4 tcp 1040 ------- 1 0.0 4.0 57 105
+ 1.188192 3 4 tcp 1040 ------- 1 0.0 4.0 59 111
- 1.188192 3 4 tcp 1040 ------- 1 0.0 4.0 59 111
r 1.194032 3 4 tcp 1040 ------- 1 0.0 4.0 58 108
+ 1.196512 3 4 tcp 1040 ------- 1 0.0 4.0 60 114
- 1.196512 3 4 tcp 1040 ------- 1 0.0 4.0 60 114
r 1.202352 3 4 tcp 1040 ------- 1 0.0 4.0 59 111
+ 1.204832 3 4 tcp 1040 ------- 1 0.0 4.0 61 117
- 1.204832 3 4 tcp 1040 ------- 1 0.0 4.0 61 117
r 1.210672 3 4 tcp 1040 ------- 1 0.0 4.0 60 114
+ 1.213152 3 4 tcp 1040 ------- 1 0.0 4.0 62 120
- 1.213152 3 4 tcp 1040 ------- 1 0.0 4.0 62 120
r 1.218992 3 4 tcp 1040 ------- 1 0.0 4.0 61 117
+ 1.221472 3 4 tcp 1040 ------- 1 0.0 4.0 63 123
- 1.221472 3 4 tcp 1040 ------- 1 0.0 4.0 63 123
r 1.227312 3 4 tcp 1040 ------- 1 0.0 4.0 62 120
+ 1.229792 3 4 tcp 1040 ------- 1 0.0 4.0 64 126
- 1.229792 3 4 tcp 1040 ------- 1 0.0 4.0 64 126
r 1.235632 3 4 tcp 1040 ------- 1 0.0 4.0 63 123
+ 1.238112 3 4 tcp 1040 ------- 1 0.0 4.0 65 129
- 1.238112 3 4 tcp 1040 ------- 1 0.0 4.0 65 129
r 1.243952 3 4 tcp 1040 ------- 1 0.0 4.0 64 126
+ 1.246432 3 4 tcp 1040 ------- 1 0.0 4.0 66 132
- 1.246432 3 4 tcp 1040 ------- 1 0.0 4.0 66 132
r 1.252272 3 4 tcp 1040 ------- 1 0.0 4.0 65 129
+ 1.254752 3 4 tcp 1040 ------- 1 0.0 4.0 67 135
- 1.254752 3 4 tcp 1040 ------- 1 0.0 4.0 67 135
r 1.260592 3 4 tcp 1040 ------- 1 0.0 4.0 66 132
+ 1.263072 3 4 tcp 1040 ------- 1 0.0 4.0 68 138
- 1.263072 3 4 tcp 1040 ------- 1 0.0 4.0 68 138
r 1.268912 3 4 tcp 1040 ------- 1 0.0 4.0 67 135
+ 1.274528 3 4 tcp 1040 ------- 1 0.0 4.0 69 141
- 1.274528 3 4 tcp 1040 ------- 1 0.0 4.0 69 141
r 1.277232 3 4 tcp 1040 ------- 1 0.0 4.0 68 138
+ 1.282528 3 4 tcp 1040 ------- 1 0.0 4.0 70 144
- 1.282528 3 4 tcp 1040 ------- 1 0.0 4.0 70 144
r 1.288688 3 4 tcp 1040 ------- 1 0.0 4.0 69 141
+ 1.290528 3 4 tcp 1040 ------- 1 0.0 4.0 71 147
- 1.290528 3 4 tcp 1040 ------- 1 0.0 4.0 71 147
r 1.296688 3 4 tcp 1040 ------- 1 0.0 4.0 70 144
+ 1.298528 3 4 tcp 1040 ------- 1 0.0 4.0 72 150
- 1.298528 3 4 tcp 1040 ------- 1 0.0 4.0 72 150
r 1.304688 3 4 tcp 1040 ------- 1 0.0 4.0 71 147
+ 1.306528 3 4 tcp 1040 ------- 1 0.0 4.0 73 153
- 1.306528 3 4 tcp 1040 ------- 1 0.0 4.0 73 153
r 1.312688 3 4 tcp 1040 ------- 1 0.0 4.0 72 150
+ 1.314528 3 4 tcp 1040 ------- 1 0.0 4.0 74 156
- 1.314528 3 4 tcp 1040 ------- 1 0.0 4.0 74 156
r 1.320688 3 4 tcp 1040 ------- 1 0.0 4.0 73 153
+ 1.322528 3 4 tcp 1040 ------- 1 0.0 4.0 75 159
- 1.322528 3 4 tcp 1040 ------- 1 0.0 4.0 75 159
r 1.328688 3 4 tcp 1040 ------- 1 0.0 4.0 74 156
+ 1.330528 3 4 tcp 1040 ------- 1 0.0 4.0 76 163
- 1.330528 3 4 tcp 1040 ------- 1 0.0 4.0 76 163
r 1.336688 3 4 tcp 1040 ------- 1 0.0 4.0 75 159
+ 1.338528 3 4 tcp 1040 ------- 1 0.0 4.0 77 166
- 1.338528 3 4 tcp 1040 ------- 1 0.0 4.0 77 166
r 1.344688 3 4 tcp 1040 ------- 1 0.0 4.0 76 163
+ 1.346528 3 4 tcp 1040 ------- 1 0.0 4.0 78 169
- 1.346528 3 4 tcp 1040 ------- 1 0.0 4.0 78 169
r 1.352688 3 4 tcp 1040 ------- 1 0.0 4.0 77 166
+ 1.354592 3 4 tcp 1040 ------- 1 0.0 4.0 79 172
- 1.354592 3 4 tcp 1040 ------- 1 0.0 4.0 79 172
r 1.360688 3 4 tcp 1040 ------- 1 0.0 4.0 78 169
+ 1.362912 3 4 tcp 1040 ------- 1 0.0 4.0 80 175
- 1.362912 3 4 tcp 1040 ------- 1 0.0 4.0 80 175
r 1.368752 3 4 tcp 1040 ------- 1 0.0 4.0 79 172
+ 1.371232 3 4 tcp 1040 ------- 1 0.0 4.0 81 178
- 1.371232 3 4 tcp 1040 ------- 1 0.0 4.0 81 178
r 1.377072 3 4 tcp 1040 ------- 1 0.0 4.0 80 175
+ 1.379552 3 4 tcp 1040 ------- 1 0.0 4.0 82 181
- 1.379552 3 4 tcp 1040 ------- 1 0.0 4.0 82 181
r 1.385392 3 4 tcp 1040 ------- 1 0.0 4.0 81 178
+ 1.387872 3 4 tcp 1040 ------- 1 0.0 4.0 83 184
- 1.387872 3 4 tcp 1040 ------- 1 0.0 4.0 83 184
r 1.393712 3 4 tcp 1040 ------- 1 0.0 4.0 82 181
+ 1.396192 3 4 tcp 1040 ------- 1 0.0 4.0 84 187
- 1.396192 3 4 tcp 1040 ------- 1 0.0 4.0 84 187
r 1.402032 3 4 tcp 1040 ------- 1 0.0 4.0 83 184
+ 1.404512 3 4 tcp 1040 ------- 1 0.0 4.0 85 190
- 1.404512 3 4 tcp 1040 ------- 1 0.0 4.0 85 190
r 1.410352 3 4 tcp 1040 ------- 1 0.0 4.0 84 187
+ 1.412832 3 4 tcp 1040 ------- 1 0.0 4.0 86 193
- 1.412832 3 4 tcp 1040 ------- 1 0.0 4.0 86 193
r 1.418672 3 4 tcp 1040 ------- 1 0.0 4.0 85 190
+ 1.421152 3 4 tcp 1040 ------- 1 0.0 4.0 87 196
- 1.421152 3 4 tcp 1040 ------- 1 0.0 4.0 87 196
r 1.426992 3 4 tcp 1040 ------- 1 0.0 4.0 86 193
+ 1.429472 3 4 tcp 1040 ------- 1 0.0 4.0 88 199
- 1.429472 3 4 tcp 1040 ------- 1 0.0 4.0 88 199
r 1.435312 3 4 tcp 1040 ------- 1 0.0 4.0 87 196
+ 1.437792 3 4 tcp 1040 ------- 1 0.0 4.0 89 202
- 1.437792 3 4 tcp 1040 ------- 1 0.0 4.0 89 202
r 1.443632 3 4 tcp 1040 ------- 1 0.0 4.0 88 199
+ 1.446112 3 4 tcp 1040 ------- 1 0.0 4.0 90 205
- 1.446112 3 4 tcp 1040 ------- 1 0.0 4.0 90 205
r 1.451952 3 4 tcp 1040 ------- 1 0.0 4.0 89 202
+ 1.454432 3 4 tcp 1040 ------- 1 0.0 4.0 91 208
- 1.454432 3 4 tcp 1040 ------- 1 0.0 4.0 91 208
r 1.460272 3 4 tcp 1040 ------- 1 0.0 4.0 90 205
+ 1.462752 3 4 tcp 1040 ------- 1 0.0 4.0 92 211
- 1.462752 3 4 tcp 1040 ------- 1 0.0 4.0 92 211
r 1.468592 3 4 tcp 1040 ------- 1 0.0 4.0 91 208
+ 1.471072 3 4 tcp 1040 ------- 1 0.0 4.0 93 214
- 1.471072 3 4 tcp 1040 ------- 1 0.0 4.0 93 214
r 1.476912 3 4 tcp 1040 ------- 1 0.0 4.0 92 211
+ 1.482528 3 4 tcp 1040 ------- 1 0.0 4.0 94 217
- 1.482528 3 4 tcp 1040 ------- 1 0.0 4.0 94 217
r 1.485232 3 4 tcp 1040 ------- 1 0.0 4.0 93 214
+ 1.490528 3 4 tcp 1040 ------- 1 0.0 4.0 95 220
- 1.490528 3 4 tcp 1040 ------- 1 0.0 4.0 95 220
r 1.496688 3 4 tcp 1040 ------- 1 0.0 4.0 94 217
+ 1.498528 3 4 tcp 1040 ------- 1 0.0 4.0 96 223
- 1.498528 3 4 tcp 1040 ------- 1 0.0 4.0 96 223
r 1.504688 3 4 tcp 1040 ------- 1 0.0 4.0 95 220
+ 1.506528 3 4 tcp 1040 ------- 1 0.0 4.0 97 226
- 1.506528 3 4 tcp 1040 ------- 1 0.0 4.0 97 226
r 1.512688 3 4 tcp 1040 ------- 1 0.0 4.0 96 223
+ 1.514528 3 4 tcp 1040 ------- 1 0.0 4.0 98 229
- 1.514528 3 4 tcp 1040 ------- 1 0.0 4.0 98 229
r 1.520688 3 4 tcp 1040 ------- 1 0.0 4.0 97 226
+ 1.522528 3 4 tcp 1040 ------- 1 0.0 4.0 99 232
- 1.522528 3 4 tcp 1040 ------- 1 0.0 4.0 99 232
r 1.528688 3 4 tcp 1040 ------- 1 0.0 4.0 98 229
+ 1.530528 3 4 tcp 1040 ------- 1 0.0 4.0 100 235
- 1.530528 3 4 tcp 1040 ------- 1 0.0 4.0 100 235
r 1.536688 3 4 tcp 1040 ------- 1 0.0 4.0 99 232
+ 1.538528 3 4 tcp 1040 ------- 1 0.0 4.0 101 239
- 1.538528 3 4 tcp 1040 ------- 1 0.0 4.0 101 239
r 1.544688 3 4 tcp 1040 ------- 1 0.0 4.0 100 235
+ 1.546528 3 4 tcp 1040 ------- 1 0.0 4.0 102 242
- 1.546528 3 4 tcp 1040 ------- 1 0.0 4.0 102 242
r 1.552688 3 4 tcp 1040 ------- 1 0.0 4.0 101 239
+ 1.554528 3 4 tcp 1040 ------- 1 0.0 4.0 103 245
- 1.554528 3 4 tcp 1040 ------- 1 0.0 4.0 103 245
r 1.560688 3 4 tcp 1040 ------- 1 0.0 4.0 102 242
+ 1.562592 3 4 tcp 1040 ------- 1 0.0 4.0 104 248
- 1.562592 3 4 tcp 1040 ------- 1 0.0 4.0 104 248
r 1.568688 3 4 tcp 1040 ------- 1 0.0 4.0 103 245
+ 1.570912 3 4 tcp 1040 ------- 1 0.0 4.0 105 251
- 1.570912 3 4 tcp 1040 ------- 1 0.0 4.0 105 251
r 1.576752 3 4 tcp 1040 ------- 1 0.0 4.0 104 248
+ 1.579232 3 4 tcp 1040 ------- 1 0.0 4.0 106 254
- 1.579232 3 4 tcp 1040 ------- 1 0.0 4.0 106 254
r 1.585072 3 4 tcp 1040 ------- 1 0.0 4.0 105 251
+ 1.587552 3 4 tcp 1040 ------- 1 0.0 4.0 107 257
- 1.587552 3 4 tcp 1040 ------- 1 0.0 4.0 107 257
r 1.593392 3 4 tcp 1040 ------- 1 0.0 4.0 106 254
+ 1.595872 3 4 tcp 1040 ------- 1 0.0 4.0 108 260
- 1.595872 3 4 tcp 1040 ------- 1 0.0 4.0 108 260
r 1.601712 3 4 tcp 1040 ------- 1 0.0 4.0 107 257
+ 1.604192 3 4 tcp 1040 ------- 1 0.0 4.0 109 263
- 1.604192 3 4 tcp 1040 ------- 1 0.0 4.0 109 263
r 1.610032 3 4 tcp 1040 ------- 1 0.0 4.0 108 260
+ 1.612512 3 4 tcp 1040 ------- 1 0.0 4.0 110 266
- 1.612512 3 4 tcp 1040 ------- 1 0.0 4.0 110 266
r 1.618352 3 4 tcp 1040 ------- 1 0.0 4.0 109 263
+ 1.620832 3 4 tcp 1040 ------- 1 0.0 4.0 111 269
- 1.620832 3 4 tcp 1040 ------- 1 0.0 4.0 111 269
r 1.626672 3 4 tcp 1040 ------- 1 0.0 4.0 110 266
+ 1.629152 3 4 tcp 1040 ------- 1 0.0 4.0 112 272
- 1.629152 3 4 tcp 1040 ------- 1 0.0 4.0 112 272
r 1.634992 3 4 tcp 1040 ------- 1 0.0 4.0 111 269
+ 1.637472 3 4 tcp 1040 ------- 1 0.0 4.0 113 275
- 1.637472 3 4 tcp 1040 ------- 1 0.0 4.0 113 275
r 1.643312 3 4 tcp 1040 ------- 1 0.0 4.0 112 272
+ 1.645792 3 4 tcp 1040 ------- 1 0.0 4.0 114 278
- 1.645792 3 4 tcp 1040 ------- 1 0.0 4.0 114 278
r 1.651632 3 4 tcp 1040 ------- 1 0.0 4.0 113 275
+ 1.654112 3 4 tcp 1040 ------- 1 0.0 4.0 115 281
- 1.654112 3 4 tcp 1040 ------- 1 0.0 4.0 115 281
r 1.659952 3 4 tcp 1040 ------- 1 0.0 4.0 114 278
+ 1.662432 3 4 tcp 1040 ------- 1 0.0 4.0 116 284
- 1.662432 3 4 tcp 1040 ------- 1 0.0 4.0 116 284
r 1.668272 3 4 tcp 1040 ------- 1 0.0 4.0 115 281
+ 1.670752 3 4 tcp 1040 ------- 1 0.0 4.0 117 287
- 1.670752 3 4 tcp 1040 ------- 1 0.0 4.0 117 287
r 1.676592 3 4 tcp 1040 ------- 1 0.0 4.0 116 284
+ 1.679072 3 4 tcp 1040 ------- 1 0.0 4.0 118 290
- 1.679072 3 4 tcp 1040 ------- 1 0.0 4.0 118 290
r 1.684912 3 4 tcp 1040 ------- 1 0.0 4.0 117 287
+ 1.690528 3 4 tcp 1040 ------- 1 0.0 4.0 119 293
- 1.690528 3 4 tcp 1040 ------- 1 0.0 4.0 119 293
r 1.693232 3 4 tcp 1040 ------- 1 0.0 4.0 118 290
+ 1.698528 3 4 tcp 1040 ------- 1 0.0 4.0 120 296
- 1.698528 3 4 tcp 1040 ------- 1 0.0 4.0 120 296
r 1.704688 3 4 tcp 1040 ------- 1 0.0 4.0 119 293
+ 1.706528 3 4 tcp 1040 ------- 1 0.0 4.0 121 299
- 1.706528 3 4 tcp 1040 ------- 1 0.0 4.0 121 299
r 1.712688 3 4 tcp 1040 ------- 1 0.0 4.0 120 296
+ 1.714528 3 4 tcp 1040 ------- 1 0.0 4.0 122 302
- 1.714528 3 4 tcp 1040 ------- 1 0.0 4.0 122 302
r 1.720688 3 4 tcp 1040 ------- 1 0.0 4.0 121 299
+ 1.722528 3 4 tcp 1040 ------- 1 0.0 4.0 123 305
- 1.722528 3 4 tcp 1040 ------- 1 0.0 4.0 123 305
r 1.728688 3 4 tcp 1040 ------- 1 0.0 4.0 122 302
+ 1.730528 3 4 tcp 1040 ------- 1 0.0 4.0 124 308
- 1.730528 3 4 tcp 1040 ------- 1 0.0 4.0 124 308
r 1.736688 3 4 tcp 1040 ------- 1 0.0 4.0 123 305
+ 1.738528 3 4 tcp 1040 ------- 1 0.0 4.0 125 311
- 1.738528 3 4 tcp 1040 ------- 1 0.0 4.0 125 311
r 1.744688 3 4 tcp 1040 ------- 1 0.0 4.0 124 308
+ 1.746528 3 4 tcp 1040 ------- 1 0.0 4.0 126 315
- 1.746528 3 4 tcp 1040 ------- 1 0.0 4.0 126 315
r 1.752688 3 4 tcp 1040 ------- 1 0.0 4.0 125 311
+ 1.754528 3 4 tcp 1040 ------- 1 0.0 4.0 127 318
- 1.754528 3 4 tcp 1040 ------- 1 0.0 4.0 127 318
r 1.760688 3 4 tcp 1040 ------- 1 0.0 4.0 126 315
+ 1.762528 3 4 tcp 1040 ------- 1 0.0 4.0 128 321
- 1.762528 3 4 tcp 1040 ------- 1 0.0 4.0 128 321
r 1.768688 3 4 tcp 1040 ------- 1 0.0 4.0 127 318
+ 1.770592 3 4 tcp 1040 ------- 1 0.0 4.0 129 324
- 1.770592 3 4 tcp 1040 ------- 1 0.0 4.0 129 324
r 1.776688 3 4 tcp 1040 ------- 1 0.0 4.0 128 321
+ 1.778912 3 4 tcp 1040 ------- 1 0.0 4.0 130 327
- 1.778912 3 4 tcp 1040 ------- 1 0.0 4.0 130 327
r 1.784752 3 4 tcp 1040 ------- 1 0.0 4.0 129 324
+ 1.787232 3 4 tcp 1040 ------- 1 0.0 4.0 131 330
- 1.787232 3 4 tcp 1040 ------- 1 0.0 4.0 131 330
r 1.793072 3 4 tcp 1040 ------- 1 0.0 4.0 130 327
+ 1.795552 3 4 tcp 1040 ------- 1 0.0 4.0 132 333
- 1.795552 3 4 tcp 1040 ------- 1 0.0 4.0 132 333
r 1.801392 3 4 tcp 1040 ------- 1 0.0 4.0 131 330
+ 1.803872 3 4 tcp 1040 ------- 1 0.0 4.0 133 336
- 1.803872 3 4 tcp 1040 ------- 1 0.0 4.0 133 336
r 1.809712 3 4 tcp 1040 ------- 1 0.0 4.0 132 333
+ 1.812192 3 4 tcp 1040 ------- 1 0.0 4.0 134 339
- 1.812192 3 4 tcp 1040 ------- 1 0.0 4.0 134 339
r 1.818032 3 4 tcp 1040 ------- 1 0.0 4.0 133 336
+ 1.820512 3 4 tcp 1040 ------- 1 0.0 4.0 135 342
- 1.820512 3 4 tcp 1040 ------- 1 0.0 4.0 135 342
r 1.826352 3 4 tcp 1040 ------- 1 0.0 4.0 134 339
+ 1.828832 3 4 tcp 1040 ------- 1 0.0 4.0 136 345
- 1.828832 3 4 tcp 1040 ------- 1 0.0 4.0 136 345
r 1.834672 3 4 tcp 1040 ------- 1 0.0 4.0 135 342
+ 1.837152 3 4 tcp 1040 ------- 1 0.0 4.0 137 348
- 1.837152 3 4 tcp 1040 ------- 1 0.0 4.0 137 348
r 1.842992 3 4 tcp 1040 ------- 1 0.0 4.0 136 345
+ 1.845472 3 4 tcp 1040 ------- 1 0.0 4.0 138 351
- 1.845472 3 4 tcp 1040 ------- 1 0.0 4.0 138 351
r 1.851312 3 4 tcp 1040 ------- 1 0.0 4.0 137 348
+ 1.853792 3 4 tcp 1040 ------- 1 0.0 4.0 139 354
- 1.853792 3 4 tcp 1040 ------- 1 0.0 4.0 139 354
r 1.859632 3 4 tcp 1040 ------- 1 0.0 4.0 138 351
+ 1.862112 3 4 tcp 1040 ------- 1 0.0 4.0 140 357
- 1.862112 3 4 tcp 1040 ------- 1 0.0 4.0 140 357
r 1.867952 3 4 tcp 1040 ------- 1 0.0 4.0 139 354
+ 1.870432 3 4 tcp 1040 ------- 1 0.0 4.0 141 360
- 1.870432 3 4 tcp 1040 ------- 1 0.0 4.0 141 360
r 1.876272 3 4 tcp 1040 ------- 1 0.0 4.0 140 357
+ 1.878752 3 4 tcp 1040 ------- 1 0.0 4.0 142 363
- 1.878752 3 4 tcp 1040 ------- 1 0.0 4.0 142 363
r 1.884592 3 4 tcp 1040 ------- 1 0.0 4.0 141 360
+ 1.887072 3 4 tcp 1040 ------- 1 0.0 4.0 143 366
- 1.887072 3 4 tcp 1040 ------- 1 0.0 4.0 143 366
r 1.892912 3 4 tcp 1040 ------- 1 0.0 4.0 142 363
+ 1.898528 3 4 tcp 1040 ------- 1 0.0 4.0 144 369
- 1.898528 3 4 tcp 1040 ------- 1 0.0 4.0 144 369
r 1.901232 3 4 tcp 1040 ------- 1 0.0 4.0 143 366
+ 1.906528 3 4 tcp 1040 ------- 1 0.0 4.0 145 372
- 1.906528 3 4 tcp 1040 ------- 1 0.0 4.0 145 372
r 1.912688 3 4 tcp 1040 ------- 1 0.0 4.0 144 369
+ 1.914528 3 4 tcp 1040 ------- 1 0.0 4.0 146 375
- 1.914528 3 4 tcp 1040 ------- 1 0.0 4.0 146 375
r 1.920688 3 4 tcp 1040 ------- 1 0.0 4.0 145 372
+ 1.922528 3 4 tcp 1040 ------- 1 0.0 4.0 147 378
- 1.922528 3 4 tcp 1040 ------- 1 0.0 4.0 147 378
r 1.928688 3 4 tcp 1040 ------- 1 0.0 4.0 146 375
+ 1.930528 3 4 tcp 1040 ------- 1 0.0 4.0 148 381
- 1.930528 3 4 tcp 1040 ------- 1 0.0 4.0 148 381
r 1.936688 3 4 tcp 1040 ------- 1 0.0 4.0 147 378
+ 1.938528 3 4 tcp 1040 ------- 1 0.0 4.0 149 384
- 1.938528 3 4 tcp 1040 ------- 1 0.0 4.0 149 384
r 1.944688 3 4 tcp 1040 ------- 1 0.0 4.0 148 381
+ 1.946528 3 4 tcp 1040 ------- 1 0.0 4.0 150 387
- 1.946528 3 4 tcp 1040 ------- 1 0.0 4.0 150 387
r 1.952688 3 4 tcp 1040 ------- 1 0.0 4.0 149 384
+ 1.954528 3 4 tcp 1040 ------- 1 0.0 4.0 151 391
- 1.954528 3 4 tcp 1040 ------- 1 0.0 4.0 151 391
r 1.960688 3 4 tcp 1040 ------- 1 0.0 4.0 150 387
+ 1.962528 3 4 tcp 1040 ------- 1 0.0 4.0 152 394
- 1.962528 3 4 tcp 1040 ------- 1 0.0 4.0 152 394
r 1.968688 3 4 tcp 1040 ------- 1 0.0 4.0 151 391
+ 1.970528 3 4 tcp 1040 ------- 1 0.0 4.0 153 397
- 1.970528 3 4 tcp 1040 ------- 1 0.0 4.0 153 397
r 1.976688 3 4 tcp 1040 ------- 1 0.0 4.0 152 394
+ 1.978592 3 4 tcp 1040 ------- 1 0.0 4.0 154 400
- 1.978592 3 4 tcp 1040 ------- 1 0.0 4.0 154 400
r 1.984688 3 4 tcp 1040 ------- 1 0.0 4.0 153 397
+ 1.986912 3 4 tcp 1040 ------- 1 0.0 4.0 155 403
- 1.986912 3 4 tcp 1040 ------- 1 0.0 4.0 155 403
r 1.992752 3 4 tcp 1040 ------- 1 0.0 4.0 154 400
+ 1.995232 3 4 tcp 1040 ------- 1 0.0 4.0 156 406
- 1.995232 3 4 tcp 1040 ------- 1 0.0 4.0 156 406
r 2.001072 3 4 tcp 1040 ------- 1 0.0 4.0 155 403
+ 2.003552 3 4 tcp 1040 ------- 1 0.0 4.0 157 409
- 2.003552 3 4 tcp 1040 ------- 1 0.0 4.0 157 409
r 2.009392 3 4 tcp 1040 ------- 1 0.0 4.0 156 406
+ 2.011872 3 4 tcp 1040 ------- 1 0.0 4.0 158 412
- 2.011872 3 4 tcp 1040 ------- 1 0.0 4.0 158 412
r 2.017712 3 4 tcp 1040 ------- 1 0.0 4.0 157 409
+ 2.020192 3 4 tcp 1040 ------- 1 0.0 4.0 159 415
- 2.020192 3 4 tcp 1040 ------- 1 0.0 4.0 159 415
r 2.026032 3 4 tcp 1040 ------- 1 0.0 4.0 158 412
+ 2.028512 3 4 tcp 1040 ------- 1 0.0 4.0 160 418
- 2.028512 3 4 tcp 1040 ------- 1 0.0 4.0 160 418
r 2.034352 3 4 tcp 1040 ------- 1 0.0 4.0 159 415
+ 2.036832 3 4 tcp 1040 ------- 1 0.0 4.0 161 421
- 2.036832 3 4 tcp 1040 ------- 1 0.0 4.0 161 421
r 2.042672 3 4 tcp 1040 ------- 1 0.0 4.0 160 418
+ 2.045152 3 4 tcp 1040 ------- 1 0.0 4.0 162 424
- 2.045152 3 4 tcp 1040 ------- 1 0.0 4.0 162 424
r 2.050992 3 4 tcp 1040 ------- 1 0.0 4.0 161 421
+ 2.053472 3 4 tcp 1040 ------- 1 0.0 4.0 163 427
- 2.053472 3 4 tcp 1040 ------- 1 0.0 4.0 163 427
r 2.059312 3 4 tcp 1040 ------- 1 0.0 4.0 162 424
+ 2.061792 3 4 tcp 1040 ------- 1 0.0 4.0 164 430
- 2.061792 3 4 tcp 1040 ------- 1 0.0 4.0 164 430
r 2.067632 3 4 tcp 1040 ------- 1 0.0 4.0 163 427
+ 2.070112 3 4 tcp 1040 ------- 1 0.0 4.0 165 433
- 2.070112 3 4 tcp 1040 ------- 1 0.0 4.0 165 433
r 2.075952 3 4 tcp 1040 ------- 1 0.0 4.0 164 430
+ 2.078432 3 4 tcp 1040 ------- 1 0.0 4.0 166 436
- 2.078432 3 4 tcp 1040 ------- 1 0.0 4.0 166 436
r 2.084272 3 4 tcp 1040 ------- 1 0.0 4.0 165 433
+ 2.086752 3 4 tcp 1040 ------- 1 0.0 4.0 167 439
- 2.086752 3 4 tcp 1040 ------- 1 0.0 4.0 167 439
r 2.092592 3 4 tcp 1040 ------- 1 0.0 4.0 166 436
+ 2.095072 3 4 tcp 1040 ------- 1 0.0 4.0 168 442
- 2.095072 3 4 tcp 1040 ------- 1 0.0 4.0 168 442
r 2.100912 3 4 tcp 1040 ------- 1 0.0 4.0 167 439
+ 2.106528 3 4 tcp 1040 ------- 1 0.0 4.0 169 445
- 2.106528 3 4 tcp 1040 ------- 1 0.0 4.0 169 445
r 2.109232 3 4 tcp 1040 ------- 1 0.0 4.0 168 442
+ 2.114528 3 4 tcp 1040 ------- 1 0.0 4.0 170 448
- 2.114528 3 4 tcp 1040 ------- 1 0.0 4.0 170 448
r 2.120688 3 4 tcp 1040 ------- 1 0.0 4.0 169 445
+ 2.122528 3 4 tcp 1040 ------- 1 0.0 4.0 171 451
- 2.122528 3 4 tcp 1040 ------- 1 0.0 4.0 171 451
r 2.128688 3 4 tcp 1040 ------- 1 0.0 4.0 170 448
+ 2.130528 3 4 tcp 1040 ------- 1 0.0 4.0 172 454
- 2.130528 3 4 tcp 1040 ------- 1 0.0 4.0 172 454
r 2.136688 3 4 tcp 1040 ------- 1 0.0 4.0 171 451
+ 2.138528 3 4 tcp 1040 ------- 1 0.0 4.0 173 457
- 2.138528 3 4 tcp 1040 ------- 1 0.0 4.0 173 457
r 2.144688 3 4 tcp 1040 ------- 1 0.0 4.0 172 454
+ 2.146528 3 4 tcp 1040 ------- 1 0.0 4.0 174 460
- 2.146528 3 4 tcp 1040 ------- 1 0.0 4.0 174 460
r 2.152688 3 4 tcp 1040 ------- 1 0.0 4.0 173 457
+ 2.154528 3 4 tcp 1040 ------- 1 0.0 4.0 175 463
- 2.154528 3 4 tcp 1040 ------- 1 0.0 4.0 175 463
r 2.160688 3 4 tcp 1040 ------- 1 0.0 4.0 174 460
+ 2.162528 3 4 tcp 1040 ------- 1 0.0 4.0 176 467
- 2.162528 3 4 tcp 1040 ------- 1 0.0 4.0 176 467
r 2.168688 3 4 tcp 1040 ------- 1 0.0 4.0 175 463
+ 2.170528 3 4 tcp 1040 ------- 1 0.0 4.0 177 470
- 2.170528 3 4 tcp 1040 ------- 1 0.0 4.0 177 470
r 2.176688 3 4 tcp 1040 ------- 1 0.0 4.0 176 467
+ 2.178528 3 4 tcp 1040 ------- 1 0.0 4.0 178 473
- 2.178528 3 4 tcp 1040 ------- 1 0.0 4.0 178 473
r 2.184688 3 4 tcp 1040 ------- 1 0.0 4.0 177 470
+ 2.186592 3 4 tcp 1040 ------- 1 0.0 4.0 179 476
- 2.186592 3 4 tcp 1040 ------- 1 0.0 4.0 179 476
r 2.192688 3 4 tcp 1040 ------- 1 0.0 4.0 178 473
+ 2.194912 3 4 tcp 1040 ------- 1 0.0 4.0 180 479
- 2.194912 3 4 tcp 1040 ------- 1 0.0 4.0 180 479
r 2.200752 3 4 tcp 1040 ------- 1 0.0 4.0 179 476
+ 2.203232 3 4 tcp 1040 ------- 1 0.0 4.0 181 482
- 2.203232 3 4 tcp 1040 ------- 1 0.0 4.0 181 482
r 2.209072 3 4 tcp 1040 ------- 1 0.0 4.0 180 479
+ 2.211552 3 4 tcp 1040 ------- 1 0.0 4.0 182 485
- 2.211552 3 4 tcp 1040 ------- 1 0.0 4.0 182 485
r 2.217392 3 4 tcp 1040 ------- 1 0.0 4.0 181 482
+ 2.219872 3 4 tcp 1040 ------- 1 0.0 4.0 183 488
- 2.219872 3 4 tcp 1040 ------- 1 0.0 4.0 183 488
r 2.225712 3 4 tcp 1040 ------- 1 0.0 4.0 182 485
+ 2.228192 3 4 tcp 1040 ------- 1 0.0 4.0 184 491
- 2.228192 3 4 tcp 1040 ------- 1 0.0 4.0 184 491
r 2.234032 3 4 tcp 1040 ------- 1 0.0 4.0 183 488
+ 2.236512 3 4 tcp 1040 ------- 1 0.0 4.0 185 494
- 2.236512 3 4 tcp 1040 ------- 1 0.0 4.0 185 494
r 2.242352 3 4 tcp 1040 ------- 1 0.0 4.0 184 491
+ 2.244832 3 4 tcp 1040 ------- 1 0.0 4.0 186 497
- 2.244832 3 4 tcp 1040 ------- 1 0.0 4.0 186 497
r 2.250672 3 4 tcp 1040 ------- 1 0.0 4.0 185 494
+ 2.253152 3 4 tcp 1040 ------- 1 0.0 4.0 187 500
- 2.253152 3 4 tcp 1040 ------- 1 0.0 4.0 187 500
r 2.258992 3 4 tcp 1040 ------- 1 0.0 4.0 186 497
+ 2.261472 3 4 tcp 1040 ------- 1 0.0 4.0 188 503
- 2.261472 3 4 tcp 1040 ------- 1 0.0 4.0 188 503
r 2.267312 3 4 tcp 1040 ------- 1 0.0 4.0 187 500
+ 2.269792 3 4 tcp 1040 ------- 1 0.0 4.0 189 506
- 2.269792 3 4 tcp 1040 ------- 1 0.0 4.0 189 506
r 2.275632 3 4 tcp 1040 ------- 1 0.0 4.0 188 503
+ 2.278112 3 4 tcp 1040 ------- 1 0.0 4.0 190 509
- 2.278112 3 4 tcp 1040 ------- 1 0.0 4.0 190 509
r 2.283952 3 4 tcp 1040 ------- 1 0.0 4.0 189 506
+ 2.286432 3 4 tcp 1040 ------- 1 0.0 4.0 191 512
- 2.286432 3 4 tcp 1040 ------- 1 0.0 4.0 191 512
r 2.292272 3 4 tcp 1040 ------- 1 0.0 4.0 190 509
+ 2.294752 3 4 tcp 1040 ------- 1 0.0 4.0 192 515
- 2.294752 3 4 tcp 1040 ------- 1 0.0 4.0 192 515
r 2.300592 3 4 tcp 1040 ------- 1 0.0 4.0 191 512
+ 2.303072 3 4 tcp 1040 ------- 1 0.0 4.0 193 518
- 2.303072 3 4 tcp 1040 ------- 1 0.0 4.0 193 518
r 2.308912 3 4 tcp 1040 ------- 1 0.0 4.0 192 515
+ 2.314528 3 4 tcp 1040 ------- 1 0.0 4.0 194 521
- 2.314528 3 4 tcp 1040 ------- 1 0.0 4.0 194 521
r 2.317232 3 4 tcp 1040 ------- 1 0.0 4.0 193 518
+ 2.322528 3 4 tcp 1040 ------- 1 0.0 4.0 195 524
- 2.322528 3 4 tcp 1040 ------- 1 0.0 4.0 195 524
r 2.328688 3 4 tcp 1040 ------- 1 0.0 4.0 194 521
+ 2.330528 3 4 tcp 1040 ------- 1 0.0 4.0 196 527
- 2.330528 3 4 tcp 1040 ------- 1 0.0 4.0 196 527
r 2.336688 3 4 tcp 1040 ------- 1 0.0 4.0 195 524
+ 2.338528 3 4 tcp 1040 ------- 1 0.0 4.0 197 530
- 2.338528 3 4 tcp 1040 ------- 1 0.0 4.0 197 530
r 2.344688 3 4 tcp 1040 ------- 1 0.0 4.0 196 527
+ 2.346528 3 4 tcp 1040 ------- 1 0.0 4.0 198 533
- 2.346528 3 4 tcp 1040 ------- 1 0.0 4.0 198 533
r 2.352688 3 4 tcp 1040 ------- 1 0.0 4.0 197 530
+ 2.354528 3 4 tcp 1040 ------- 1 0.0 4.0 199 536
- 2.354528 3 4 tcp 1040 ------- 1 0.0 4.0 199 536
r 2.360688 3 4 tcp 1040 ------- 1 0.0 4.0 198 533
+ 2.362528 3 4 tcp 1040 ------- 1 0.0 4.0 200 539
- 2.362528 3 4 tcp 1040 ------- 1 0.0 4.0 200 539
r 2.368688 3 4 tcp 1040 ------- 1 0.0 4.0 199 536
+ 2.370528 3 4 tcp 1040 ------- 1 0.0 4.0 201 543
- 2.370528 3 4 tcp 1040 ------- 1 0.0 4.0 201 543
r 2.376688 3 4 tcp 1040 ------- 1 0.0 4.0 200 539
+ 2.378528 3 4 tcp 1040 ------- 1 0.0 4.0 202 546
- 2.378528 3 4 tcp 1040 ------- 1 0.0 4.0 202 546
r 2.384688 3 4 tcp 1040 ------- 1 0.0 4.0 201 543
+ 2.386528 3 4 tcp 1040 ------- 1 0.0 4.0 203 549
- 2.386528 3 4 tcp 1040 ------- 1 0.0 4.0 203 549