+ 0.51032 2 3 tcp 40 ------- 1 0.0 4.0 0 0
- 0.51032 2 3 tcp 40 ------- 1 0.0 4.0 0 0
r 0.52064 2 3 tcp 40 ------- 1 0.0 4.0 0 0
+ 0.57992 2 3 tcp 1040 ------- 1 0.0 4.0 1 2
- 0.57992 2 3 tcp 1040 ------- 1 0.0 4.0 1 2
+ 0.58824 2 3 tcp 1040 ------- 1 0.0 4.0 2 3
- 0.58824 2 3 tcp 1040 ------- 1 0.0 4.0 2 3
r 0.59824 2 3 tcp 1040 ------- 1 0.0 4.0 1 2
r 0.60656 2 3 tcp 1040 ------- 1 0.0 4.0 2 3
+ 0.66152 2 3 tcp 1040 ------- 1 0.0 4.0 3 6
- 0.66152 2 3 tcp 1040 ------- 1 0.0 4.0 3 6
+ 0.66984 2 3 tcp 1040 ------- 1 0.0 4.0 4 7
- 0.66984 2 3 tcp 1040 ------- 1 0.0 4.0 4 7
+ 0.67816 2 3 tcp 1040 ------- 1 0.0 4.0 5 8
- 0.67816 2 3 tcp 1040 ------- 1 0.0 4.0 5 8
r 0.67984 2 3 tcp 1040 ------- 1 0.0 4.0 3 6
+ 0.68648 2 3 tcp 1040 ------- 1 0.0 4.0 6 9
- 0.68648 2 3 tcp 1040 ------- 1 0.0 4.0 6 9
r 0.68816 2 3 tcp 1040 ------- 1 0.0 4.0 4 7
r 0.69648 2 3 tcp 1040 ------- 1 0.0 4.0 5 8
r 0.7048 2 3 tcp 1040 ------- 1 0.0 4.0 6 9
+ 0.74312 2 3 tcp 1040 ------- 1 0.0 4.0 7 14
- 0.74312 2 3 tcp 1040 ------- 1 0.0 4.0 7 14
+ 0.75144 2 3 tcp 1040 ------- 1 0.0 4.0 8 15
- 0.75144 2 3 tcp 1040 ------- 1 0.0 4.0 8 15
+ 0.75976 2 3 tcp 1040 ------- 1 0.0 4.0 9 16
- 0.75976 2 3 tcp 1040 ------- 1 0.0 4.0 9 16
r 0.76144 2 3 tcp 1040 ------- 1 0.0 4.0 7 14
+ 0.76808 2 3 tcp 1040 ------- 1 0.0 4.0 10 17
- 0.76808 2 3 tcp 1040 ------- 1 0.0 4.0 10 17
r 0.76976 2 3 tcp 1040 ------- 1 0.0 4.0 8 15
+ 0.7764 2 3 tcp 1040 ------- 1 0.0 4.0 11 18
- 0.7764 2 3 tcp 1040 ------- 1 0.0 4.0 11 18
r 0.77808 2 3 tcp 1040 ------- 1 0.0 4.0 9 16
+ 0.78472 2 3 tcp 1040 ------- 1 0.0 4.0 12 19
- 0.78472 2 3 tcp 1040 ------- 1 0.0 4.0 12 19
r 0.7864 2 3 tcp 1040 ------- 1 0.0 4.0 10 17
+ 0.79304 2 3 tcp 1040 ------- 1 0.0 4.0 13 20
- 0.79304 2 3 tcp 1040 ------- 1 0.0 4.0 13 20
r 0.79472 2 3 tcp 1040 ------- 1 0.0 4.0 11 18
+ 0.80136 2 3 tcp 1040 ------- 1 0.0 4.0 14 21
- 0.80136 2 3 tcp 1040 ------- 1 0.0 4.0 14 21
r 0.80304 2 3 tcp 1040 ------- 1 0.0 4.0 12 19
r 0.81136 2 3 tcp 1040 ------- 1 0.0 4.0 13 20
r 0.81968 2 3 tcp 1040 ------- 1 0.0 4.0 14 21
+ 0.82472 2 3 tcp 1040 ------- 1 0.0 4.0 15 26
- 0.82472 2 3 tcp 1040 ------- 1 0.0 4.0 15 26
+ 0.83304 2 3 tcp 1040 ------- 1 0.0 4.0 16 27
- 0.83304 2 3 tcp 1040 ------- 1 0.0 4.0 16 27
+ 0.84136 2 3 tcp 1040 ------- 1 0.0 4.0 17 29
- 0.84136 2 3 tcp 1040 ------- 1 0.0 4.0 17 29
r 0.84304 2 3 tcp 1040 ------- 1 0.0 4.0 15 26
+ 0.84968 2 3 tcp 1040 ------- 1 0.0 4.0 18 30
- 0.84968 2 3 tcp 1040 ------- 1 0.0 4.0 18 30
r 0.85136 2 3 tcp 1040 ------- 1 0.0 4.0 16 27
+ 0.858 2 3 tcp 1040 ------- 1 0.0 4.0 19 32
- 0.858 2 3 tcp 1040 ------- 1 0.0 4.0 19 32
r 0.85968 2 3 tcp 1040 ------- 1 0.0 4.0 17 29
+ 0.86632 2 3 tcp 1040 ------- 1 0.0 4.0 20 33
- 0.86632 2 3 tcp 1040 ------- 1 0.0 4.0 20 33
r 0.868 2 3 tcp 1040 ------- 1 0.0 4.0 18 30
+ 0.87464 2 3 tcp 1040 ------- 1 0.0 4.0 21 35
- 0.87464 2 3 tcp 1040 ------- 1 0.0 4.0 21 35
r 0.87632 2 3 tcp 1040 ------- 1 0.0 4.0 19 32
+ 0.88296 2 3 tcp 1040 ------- 1 0.0 4.0 22 36
- 0.88296 2 3 tcp 1040 ------- 1 0.0 4.0 22 36
r 0.88464 2 3 tcp 1040 ------- 1 0.0 4.0 20 33
+ 0.89128 2 3 tcp 1040 ------- 1 0.0 4.0 23 38
- 0.89128 2 3 tcp 1040 ------- 1 0.0 4.0 23 38
r 0.89296 2 3 tcp 1040 ------- 1 0.0 4.0 21 35
+ 0.8996 2 3 tcp 1040 ------- 1 0.0 4.0 24 39
- 0.8996 2 3 tcp 1040 ------- 1 0.0 4.0 24 39
r 0.90128 2 3 tcp 1040 ------- 1 0.0 4.0 22 36
+ 0.90792 2 3 tcp 1040 ------- 1 0.0 4.0 25 40
- 0.90792 2 3 tcp 1040 ------- 1 0.0 4.0 25 40
r 0.9096 2 3 tcp 1040 ------- 1 0.0 4.0 23 38
+ 0.91624 2 3 tcp 1040 ------- 1 0.0 4.0 26 41
- 0.91624 2 3 tcp 1040 ------- 1 0.0 4.0 26 41
r 0.91792 2 3 tcp 1040 ------- 1 0.0 4.0 24 39
+ 0.92456 2 3 tcp 1040 ------- 1 0.0 4.0 27 42
- 0.92456 2 3 tcp 1040 ------- 1 0.0 4.0 27 42
r 0.92624 2 3 tcp 1040 ------- 1 0.0 4.0 25 40
+ 0.93288 2 3 tcp 1040 ------- 1 0.0 4.0 28 43
- 0.93288 2 3 tcp 1040 ------- 1 0.0 4.0 28 43
r 0.93456 2 3 tcp 1040 ------- 1 0.0 4.0 26 41
+ 0.9412 2 3 tcp 1040 ------- 1 0.0 4.0 29 45
- 0.9412 2 3 tcp 1040 ------- 1 0.0 4.0 29 45
r 0.94288 2 3 tcp 1040 ------- 1 0.0 4.0 27 42
+ 0.94952 2 3 tcp 1040 ------- 1 0.0 4.0 30 46
- 0.94952 2 3 tcp 1040 ------- 1 0.0 4.0 30 46
r 0.9512 2 3 tcp 1040 ------- 1 0.0 4.0 28 43
+ 0.95784 2 3 tcp 1040 ------- 1 0.0 4.0 31 50
- 0.95784 2 3 tcp 1040 ------- 1 0.0 4.0 31 50
r 0.95952 2 3 tcp 1040 ------- 1 0.0 4.0 29 45
+ 0.96616 2 3 tcp 1040 ------- 1 0.0 4.0 32 51
- 0.96616 2 3 tcp 1040 ------- 1 0.0 4.0 32 51
r 0.96784 2 3 tcp 1040 ------- 1 0.0 4.0 30 46
+ 0.97448 2 3 tcp 1040 ------- 1 0.0 4.0 33 53
- 0.97448 2 3 tcp 1040 ------- 1 0.0 4.0 33 53
r 0.97616 2 3 tcp 1040 ------- 1 0.0 4.0 31 50
+ 0.9828 2 3 tcp 1040 ------- 1 0.0 4.0 34 54
- 0.9828 2 3 tcp 1040 ------- 1 0.0 4.0 34 54
r 0.98448 2 3 tcp 1040 ------- 1 0.0 4.0 32 51
+ 0.99112 2 3 tcp 1040 ------- 1 0.0 4.0 35 56
- 0.99112 2 3 tcp 1040 ------- 1 0.0 4.0 35 56
r 0.9928 2 3 tcp 1040 ------- 1 0.0 4.0 33 53
+ 0.99944 2 3 tcp 1040 ------- 1 0.0 4.0 36 57
- 0.99944 2 3 tcp 1040 ------- 1 0.0 4.0 36 57
r 1.00112 2 3 tcp 1040 ------- 1 0.0 4.0 34 54
+ 1.00776 2 3 tcp 1040 ------- 1 0.0 4.0 37 59
- 1.00776 2 3 tcp 1040 ------- 1 0.0 4.0 37 59
r 1.00944 2 3 tcp 1040 ------- 1 0.0 4.0 35 56
+ 1.01608 2 3 tcp 1040 ------- 1 0.0 4.0 38 60
- 1.01608 2 3 tcp 1040 ------- 1 0.0 4.0 38 60
r 1.01776 2 3 tcp 1040 ------- 1 0.0 4.0 36 57
+ 1.018 2 3 cbr 1000 ------- 2 1.0 3.0 0 82
+ 1.0244 2 3 tcp 1040 ------- 1 0.0 4.0 39 62
- 1.0244 2 3 cbr 1000 ------- 2 1.0 3.0 0 82
+ 1.026 2 3 cbr 1000 ------- 2 1.0 3.0 1 85
r 1.02608 2 3 tcp 1040 ------- 1 0.0 4.0 37 59
- 1.0324 2 3 tcp 1040 ------- 1 0.0 4.0 39 62
+ 1.03272 2 3 tcp 1040 ------- 1 0.0 4.0 40 64
+ 1.034 2 3 cbr 1000 ------- 2 1.0 3.0 2 88
r 1.0344 2 3 tcp 1040 ------- 1 0.0 4.0 38 60
- 1.04072 2 3 cbr 1000 ------- 2 1.0 3.0 1 85
+ 1.04104 2 3 tcp 1040 ------- 1 0.0 4.0 41 66
+ 1.042 2 3 cbr 1000 ------- 2 1.0 3.0 3 91
r 1.0424 2 3 cbr 1000 ------- 2 1.0 3.0 0 82
- 1.04872 2 3 tcp 1040 ------- 1 0.0 4.0 40 64
+ 1.04936 2 3 tcp 1040 ------- 1 0.0 4.0 42 68
+ 1.05 2 3 cbr 1000 ------- 2 1.0 3.0 4 94
r 1.05072 2 3 tcp 1040 ------- 1 0.0 4.0 39 62
- 1.05704 2 3 cbr 1000 ------- 2 1.0 3.0 2 88
+ 1.05768 2 3 tcp 1040 ------- 1 0.0 4.0 43 70
+ 1.058 2 3 cbr 1000 ------- 2 1.0 3.0 5 96
r 1.05872 2 3 cbr 1000 ------- 2 1.0 3.0 1 85
- 1.06504 2 3 tcp 1040 ------- 1 0.0 4.0 41 66
+ 1.066 2 3 tcp 1040 ------- 1 0.0 4.0 44 72
+ 1.066 2 3 cbr 1000 ------- 2 1.0 3.0 6 99
r 1.06704 2 3 tcp 1040 ------- 1 0.0 4.0 40 64
- 1.07336 2 3 cbr 1000 ------- 2 1.0 3.0 3 91
+ 1.074 2 3 cbr 1000 ------- 2 1.0 3.0 7 102
+ 1.07432 2 3 tcp 1040 ------- 1 0.0 4.0 45 74
r 1.07504 2 3 cbr 1000 ------- 2 1.0 3.0 2 88
- 1.08136 2 3 tcp 1040 ------- 1 0.0 4.0 42 68
+ 1.082 2 3 cbr 1000 ------- 2 1.0 3.0 8 104
+ 1.08264 2 3 tcp 1040 ------- 1 0.0 4.0 46 76
r 1.08336 2 3 tcp 1040 ------- 1 0.0 4.0 41 66
- 1.08968 2 3 cbr 1000 ------- 2 1.0 3.0 4 94
+ 1.09 2 3 cbr 1000 ------- 2 1.0 3.0 9 107
+ 1.09096 2 3 tcp 1040 ------- 1 0.0 4.0 47 78
d 1.09096 2 3 tcp 1040 ------- 1 0.0 4.0 47 78
r 1.09136 2 3 cbr 1000 ------- 2 1.0 3.0 3 91
- 1.09768 2 3 tcp 1040 ------- 1 0.0 4.0 43 70
+ 1.098 2 3 cbr 1000 ------- 2 1.0 3.0 10 109
+ 1.09928 2 3 tcp 1040 ------- 1 0.0 4.0 48 80
d 1.09928 2 3 tcp 1040 ------- 1 0.0 4.0 48 80
r 1.09968 2 3 tcp 1040 ------- 1 0.0 4.0 42 68
+ 1.106 2 3 cbr 1000 ------- 2 1.0 3.0 11 111
d 1.106 2 3 cbr 1000 ------- 2 1.0 3.0 11 111
- 1.106 2 3 cbr 1000 ------- 2 1.0 3.0 5 96
+ 1.1076 2 3 tcp 1040 ------- 1 0.0 4.0 49 83
r 1.10768 2 3 cbr 1000 ------- 2 1.0 3.0 4 94
+ 1.114 2 3 cbr 1000 ------- 2 1.0 3.0 12 113
d 1.114 2 3 cbr 1000 ------- 2 1.0 3.0 12 113
- 1.114 2 3 tcp 1040 ------- 1 0.0 4.0 44 72
+ 1.11592 2 3 tcp 1040 ------- 1 0.0 4.0 50 86
r 1.116 2 3 tcp 1040 ------- 1 0.0 4.0 43 70
+ 1.122 2 3 cbr 1000 ------- 2 1.0 3.0 13 115
d 1.122 2 3 cbr 1000 ------- 2 1.0 3.0 13 115
- 1.12232 2 3 cbr 1000 ------- 2 1.0 3.0 6 99
r 1.124 2 3 cbr 1000 ------- 2 1.0 3.0 5 96
+ 1.12424 2 3 tcp 1040 ------- 1 0.0 4.0 51 89
+ 1.13 2 3 cbr 1000 ------- 2 1.0 3.0 14 117
d 1.13 2 3 cbr 1000 ------- 2 1.0 3.0 14 117
- 1.13032 2 3 cbr 1000 ------- 2 1.0 3.0 7 102
r 1.13232 2 3 tcp 1040 ------- 1 0.0 4.0 44 72
+ 1.13256 2 3 tcp 1040 ------- 1 0.0 4.0 52 92
+ 1.138 2 3 cbr 1000 ------- 2 1.0 3.0 15 119
d 1.138 2 3 cbr 1000 ------- 2 1.0 3.0 15 119
- 1.13832 2 3 tcp 1040 ------- 1 0.0 4.0 45 74
r 1.14032 2 3 cbr 1000 ------- 2 1.0 3.0 6 99
+ 1.14088 2 3 tcp 1040 ------- 1 0.0 4.0 53 95
+ 1.146 2 3 cbr 1000 ------- 2 1.0 3.0 16 120
d 1.146 2 3 cbr 1000 ------- 2 1.0 3.0 16 120
- 1.14664 2 3 cbr 1000 ------- 2 1.0 3.0 8 104
r 1.14832 2 3 cbr 1000 ------- 2 1.0 3.0 7 102
+ 1.1492 2 3 tcp 1040 ------- 1 0.0 4.0 54 98
+ 1.154 2 3 cbr 1000 ------- 2 1.0 3.0 17 123
d 1.154 2 3 cbr 1000 ------- 2 1.0 3.0 17 123
- 1.15464 2 3 tcp 1040 ------- 1 0.0 4.0 46 76
r 1.15664 2 3 tcp 1040 ------- 1 0.0 4.0 45 74
+ 1.15752 2 3 tcp 1040 ------- 1 0.0 4.0 55 101
+ 1.162 2 3 cbr 1000 ------- 2 1.0 3.0 18 124
d 1.162 2 3 cbr 1000 ------- 2 1.0 3.0 18 124
- 1.16296 2 3 cbr 1000 ------- 2 1.0 3.0 9 107
r 1.16464 2 3 cbr 1000 ------- 2 1.0 3.0 8 104
+ 1.16584 2 3 tcp 1040 ------- 1 0.0 4.0 56 103
+ 1.17 2 3 cbr 1000 ------- 2 1.0 3.0 19 127
d 1.17 2 3 cbr 1000 ------- 2 1.0 3.0 19 127
- 1.17096 2 3 cbr 1000 ------- 2 1.0 3.0 10 109
r 1.17296 2 3 tcp 1040 ------- 1 0.0 4.0 46 76
+ 1.17416 2 3 tcp 1040 ------- 1 0.0 4.0 57 106
+ 1.178 2 3 cbr 1000 ------- 2 1.0 3.0 20 128
d 1.178 2 3 cbr 1000 ------- 2 1.0 3.0 20 128
- 1.17896 2 3 tcp 1040 ------- 1 0.0 4.0 49 83
r 1.18096 2 3 cbr 1000 ------- 2 1.0 3.0 9 107
+ 1.18248 2 3 tcp 1040 ------- 1 0.0 4.0 58 108
+ 1.186 2 3 cbr 1000 ------- 2 1.0 3.0 21 130
d 1.186 2 3 cbr 1000 ------- 2 1.0 3.0 21 130
- 1.18728 2 3 tcp 1040 ------- 1 0.0 4.0 50 86
r 1.18896 2 3 cbr 1000 ------- 2 1.0 3.0 10 109
+ 1.1908 2 3 tcp 1040 ------- 1 0.0 4.0 59 112
+ 1.194 2 3 cbr 1000 ------- 2 1.0 3.0 22 132
d 1.194 2 3 cbr 1000 ------- 2 1.0 3.0 22 132
- 1.1956 2 3 tcp 1040 ------- 1 0.0 4.0 51 89
r 1.19728 2 3 tcp 1040 ------- 1 0.0 4.0 49 83
+ 1.19912 2 3 tcp 1040 ------- 1 0.0 4.0 60 116
+ 1.202 2 3 cbr 1000 ------- 2 1.0 3.0 23 134
d 1.202 2 3 cbr 1000 ------- 2 1.0 3.0 23 134
- 1.20392 2 3 tcp 1040 ------- 1 0.0 4.0 52 92
r 1.2056 2 3 tcp 1040 ------- 1 0.0 4.0 50 86
+ 1.20744 2 3 tcp 1040 ------- 1 0.0 4.0 61 121
+ 1.21 2 3 cbr 1000 ------- 2 1.0 3.0 24 136
d 1.21 2 3 cbr 1000 ------- 2 1.0 3.0 24 136
- 1.21224 2 3 tcp 1040 ------- 1 0.0 4.0 53 95
r 1.21392 2 3 tcp 1040 ------- 1 0.0 4.0 51 89
+ 1.21576 2 3 tcp 1040 ------- 1 0.0 4.0 62 125
+ 1.218 2 3 cbr 1000 ------- 2 1.0 3.0 25 137
d 1.218 2 3 cbr 1000 ------- 2 1.0 3.0 25 137
- 1.22056 2 3 tcp 1040 ------- 1 0.0 4.0 54 98
r 1.22224 2 3 tcp 1040 ------- 1 0.0 4.0 52 92
+ 1.22408 2 3 tcp 1040 ------- 1 0.0 4.0 63 129
+ 1.226 2 3 cbr 1000 ------- 2 1.0 3.0 26 139
d 1.226 2 3 cbr 1000 ------- 2 1.0 3.0 26 139
- 1.22888 2 3 tcp 1040 ------- 1 0.0 4.0 55 101
r 1.23056 2 3 tcp 1040 ------- 1 0.0 4.0 53 95
+ 1.2324 2 3 tcp 1040 ------- 1 0.0 4.0 64 133
+ 1.234 2 3 cbr 1000 ------- 2 1.0 3.0 27 141
d 1.234 2 3 cbr 1000 ------- 2 1.0 3.0 27 141
- 1.2372 2 3 tcp 1040 ------- 1 0.0 4.0 56 103
r 1.23888 2 3 tcp 1040 ------- 1 0.0 4.0 54 98
+ 1.24072 2 3 tcp 1040 ------- 1 0.0 4.0 65 138
+ 1.242 2 3 cbr 1000 ------- 2 1.0 3.0 28 144
d 1.242 2 3 cbr 1000 ------- 2 1.0 3.0 28 144
- 1.24552 2 3 tcp 1040 ------- 1 0.0 4.0 57 106
r 1.2472 2 3 tcp 1040 ------- 1 0.0 4.0 55 101
+ 1.24904 2 3 tcp 1040 ------- 1 0.0 4.0 66 142
+ 1.25 2 3 cbr 1000 ------- 2 1.0 3.0 29 146
d 1.25 2 3 cbr 1000 ------- 2 1.0 3.0 29 146
- 1.25384 2 3 tcp 1040 ------- 1 0.0 4.0 58 108
r 1.25552 2 3 tcp 1040 ------- 1 0.0 4.0 56 103
+ 1.258 2 3 cbr 1000 ------- 2 1.0 3.0 30 148
- 1.26216 2 3 tcp 1040 ------- 1 0.0 4.0 59 112
r 1.26384 2 3 tcp 1040 ------- 1 0.0 4.0 57 106
+ 1.266 2 3 cbr 1000 ------- 2 1.0 3.0 31 150
- 1.27048 2 3 tcp 1040 ------- 1 0.0 4.0 60 116
r 1.27216 2 3 tcp 1040 ------- 1 0.0 4.0 58 108
+ 1.274 2 3 cbr 1000 ------- 2 1.0 3.0 32 152
+ 1.2772 2 3 tcp 1040 ---A--- 1 0.0 4.0 47 153
d 1.2772 2 3 tcp 1040 ---A--- 1 0.0 4.0 47 153
- 1.2788 2 3 tcp 1040 ------- 1 0.0 4.0 61 121
r 1.28048 2 3 tcp 1040 ------- 1 0.0 4.0 59 112
+ 1.282 2 3 cbr 1000 ------- 2 1.0 3.0 33 155
- 1.28712 2 3 tcp 1040 ------- 1 0.0 4.0 62 125
r 1.2888 2 3 tcp 1040 ------- 1 0.0 4.0 60 116
+ 1.29 2 3 cbr 1000 ------- 2 1.0 3.0 34 157
- 1.29544 2 3 tcp 1040 ------- 1 0.0 4.0 63 129
r 1.29712 2 3 tcp 1040 ------- 1 0.0 4.0 61 121
+ 1.298 2 3 cbr 1000 ------- 2 1.0 3.0 35 159
- 1.30376 2 3 tcp 1040 ------- 1 0.0 4.0 64 133
r 1.30544 2 3 tcp 1040 ------- 1 0.0 4.0 62 125
+ 1.306 2 3 cbr 1000 ------- 2 1.0 3.0 36 161
- 1.31208 2 3 tcp 1040 ------- 1 0.0 4.0 65 138
r 1.31376 2 3 tcp 1040 ------- 1 0.0 4.0 63 129
+ 1.314 2 3 cbr 1000 ------- 2 1.0 3.0 37 163
- 1.3204 2 3 tcp 1040 ------- 1 0.0 4.0 66 142
+ 1.322 2 3 cbr 1000 ------- 2 1.0 3.0 38 165
r 1.32208 2 3 tcp 1040 ------- 1 0.0 4.0 64 133
- 1.32872 2 3 cbr 1000 ------- 2 1.0 3.0 30 148
+ 1.33 2 3 cbr 1000 ------- 2 1.0 3.0 39 167
r 1.3304 2 3 tcp 1040 ------- 1 0.0 4.0 65 138
- 1.33672 2 3 cbr 1000 ------- 2 1.0 3.0 31 150
+ 1.338 2 3 cbr 1000 ------- 2 1.0 3.0 40 169
r 1.33872 2 3 tcp 1040 ------- 1 0.0 4.0 66 142
- 1.34472 2 3 cbr 1000 ------- 2 1.0 3.0 32 152
+ 1.346 2 3 cbr 1000 ------- 2 1.0 3.0 41 171
r 1.34672 2 3 cbr 1000 ------- 2 1.0 3.0 30 148
- 1.35272 2 3 cbr 1000 ------- 2 1.0 3.0 33 155
+ 1.354 2 3 cbr 1000 ------- 2 1.0 3.0 42 172
r 1.35472 2 3 cbr 1000 ------- 2 1.0 3.0 31 150
- 1.36072 2 3 cbr 1000 ------- 2 1.0 3.0 34 157
+ 1.362 2 3 cbr 1000 ------- 2 1.0 3.0 43 174
r 1.36272 2 3 cbr 1000 ------- 2 1.0 3.0 32 152
- 1.36872 2 3 cbr 1000 ------- 2 1.0 3.0 35 159
+ 1.37 2 3 cbr 1000 ------- 2 1.0 3.0 44 176
r 1.37072 2 3 cbr 1000 ------- 2 1.0 3.0 33 155
- 1.37672 2 3 cbr 1000 ------- 2 1.0 3.0 36 161
+ 1.378 2 3 cbr 1000 ------- 2 1.0 3.0 45 178
r 1.37872 2 3 cbr 1000 ------- 2 1.0 3.0 34 157
- 1.38472 2 3 cbr 1000 ------- 2 1.0 3.0 37 163
+ 1.386 2 3 cbr 1000 ------- 2 1.0 3.0 46 179
r 1.38672 2 3 cbr 1000 ------- 2 1.0 3.0 35 159
- 1.39272 2 3 cbr 1000 ------- 2 1.0 3.0 38 165
+ 1.394 2 3 cbr 1000 ------- 2 1.0 3.0 47 180
r 1.39472 2 3 cbr 1000 ------- 2 1.0 3.0 36 161
- 1.40072 2 3 cbr 1000 ------- 2 1.0 3.0 39 167
+ 1.402 2 3 cbr 1000 ------- 2 1.0 3.0 48 181
r 1.40272 2 3 cbr 1000 ------- 2 1.0 3.0 37 163
- 1.40872 2 3 cbr 1000 ------- 2 1.0 3.0 40 169
+ 1.41 2 3 cbr 1000 ------- 2 1.0 3.0 49 182
r 1.41072 2 3 cbr 1000 ------- 2 1.0 3.0 38 165
- 1.41672 2 3 cbr 1000 ------- 2 1.0 3.0 41 171
+ 1.418 2 3 cbr 1000 ------- 2 1.0 3.0 50 183
r 1.41872 2 3 cbr 1000 ------- 2 1.0 3.0 39 167
- 1.42472 2 3 cbr 1000 ------- 2 1.0 3.0 42 172
+ 1.426 2 3 cbr 1000 ------- 2 1.0 3.0 51 184
r 1.42672 2 3 cbr 1000 ------- 2 1.0 3.0 40 169
- 1.43272 2 3 cbr 1000 ------- 2 1.0 3.0 43 174
+ 1.434 2 3 cbr 1000 ------- 2 1.0 3.0 52 185
r 1.43472 2 3 cbr 1000 ------- 2 1.0 3.0 41 171
- 1.44072 2 3 cbr 1000 ------- 2 1.0 3.0 44 176
+ 1.442 2 3 cbr 1000 ------- 2 1.0 3.0 53 186
r 1.44272 2 3 cbr 1000 ------- 2 1.0 3.0 42 172
- 1.44872 2 3 cbr 1000 ------- 2 1.0 3.0 45 178
+ 1.45 2 3 cbr 1000 ------- 2 1.0 3.0 54 187
r 1.45072 2 3 cbr 1000 ------- 2 1.0 3.0 43 174
- 1.45672 2 3 cbr 1000 ------- 2 1.0 3.0 46 179
+ 1.458 2 3 cbr 1000 ------- 2 1.0 3.0 55 188
r 1.45872 2 3 cbr 1000 ------- 2 1.0 3.0 44 176
- 1.46472 2 3 cbr 1000 ------- 2 1.0 3.0 47 180
+ 1.466 2 3 cbr 1000 ------- 2 1.0 3.0 56 189
r 1.46672 2 3 cbr 1000 ------- 2 1.0 3.0 45 178
- 1.47272 2 3 cbr 1000 ------- 2 1.0 3.0 48 181
+ 1.474 2 3 cbr 1000 ------- 2 1.0 3.0 57 190
r 1.47472 2 3 cbr 1000 ------- 2 1.0 3.0 46 179
- 1.48072 2 3 cbr 1000 ------- 2 1.0 3.0 49 182
+ 1.482 2 3 cbr 1000 ------- 2 1.0 3.0 58 191
r 1.48272 2 3 cbr 1000 ------- 2 1.0 3.0 47 180
- 1.48872 2 3 cbr 1000 ------- 2 1.0 3.0 50 183
+ 1.49 2 3 cbr 1000 ------- 2 1.0 3.0 59 192
r 1.49072 2 3 cbr 1000 ------- 2 1.0 3.0 48 181
- 1.49672 2 3 cbr 1000 ------- 2 1.0 3.0 51 184
+ 1.4972 2 3 tcp 1040 ---A--- 1 0.0 4.0 47 193
+ 1.498 2 3 cbr 1000 ------- 2 1.0 3.0 60 194
d 1.498 2 3 cbr 1000 ------- 2 1.0 3.0 60 194
r 1.49872 2 3 cbr 1000 ------- 2 1.0 3.0 49 182
- 1.50472 2 3 cbr 1000 ------- 2 1.0 3.0 52 185
+ 1.506 2 3 cbr 1000 ------- 2 1.0 3.0 61 195
r 1.50672 2 3 cbr 1000 ------- 2 1.0 3.0 50 183
- 1.51272 2 3 cbr 1000 ------- 2 1.0 3.0 53 186
+ 1.514 2 3 cbr 1000 ------- 2 1.0 3.0 62 196
r 1.51472 2 3 cbr 1000 ------- 2 1.0 3.0 51 184
- 1.52072 2 3 cbr 1000 ------- 2 1.0 3.0 54 187
+ 1.522 2 3 cbr 1000 ------- 2 1.0 3.0 63 197
r 1.52272 2 3 cbr 1000 ------- 2 1.0 3.0 52 185
- 1.52872 2 3 cbr 1000 ------- 2 1.0 3.0 55 188
+ 1.53 2 3 cbr 1000 ------- 2 1.0 3.0 64 198
r 1.53072 2 3 cbr 1000 ------- 2 1.0 3.0 53 186
- 1.53672 2 3 cbr 1000 ------- 2 1.0 3.0 56 189
+ 1.538 2 3 cbr 1000 ------- 2 1.0 3.0 65 199
r 1.53872 2 3 cbr 1000 ------- 2 1.0 3.0 54 187
- 1.54472 2 3 cbr 1000 ------- 2 1.0 3.0 57 190
+ 1.546 2 3 cbr 1000 ------- 2 1.0 3.0 66 200
r 1.54672 2 3 cbr 1000 ------- 2 1.0 3.0 55 188
- 1.55272 2 3 cbr 1000 ------- 2 1.0 3.0 58 191
+ 1.554 2 3 cbr 1000 ------- 2 1.0 3.0 67 201
r 1.55472 2 3 cbr 1000 ------- 2 1.0 3.0 56 189
- 1.56072 2 3 cbr 1000 ------- 2 1.0 3.0 59 192
+ 1.562 2 3 cbr 1000 ------- 2 1.0 3.0 68 202
r 1.56272 2 3 cbr 1000 ------- 2 1.0 3.0 57 190
- 1.56872 2 3 tcp 1040 ---A--- 1 0.0 4.0 47 193
+ 1.57 2 3 cbr 1000 ------- 2 1.0 3.0 69 203
r 1.57072 2 3 cbr 1000 ------- 2 1.0 3.0 58 191
- 1.57704 2 3 cbr 1000 ------- 2 1.0 3.0 61 195
+ 1.578 2 3 cbr 1000 ------- 2 1.0 3.0 70 204
r 1.57872 2 3 cbr 1000 ------- 2 1.0 3.0 59 192
- 1.58504 2 3 cbr 1000 ------- 2 1.0 3.0 62 196
+ 1.586 2 3 cbr 1000 ------- 2 1.0 3.0 71 205
r 1.58704 2 3 tcp 1040 ---A--- 1 0.0 4.0 47 193
- 1.59304 2 3 cbr 1000 ------- 2 1.0 3.0 63 197
+ 1.594 2 3 cbr 1000 ------- 2 1.0 3.0 72 206
r 1.59504 2 3 cbr 1000 ------- 2 1.0 3.0 61 195
- 1.60104 2 3 cbr 1000 ------- 2 1.0 3.0 64 198
+ 1.602 2 3 cbr 1000 ------- 2 1.0 3.0 73 207
r 1.60304 2 3 cbr 1000 ------- 2 1.0 3.0 62 196
- 1.60904 2 3 cbr 1000 ------- 2 1.0 3.0 65 199
+ 1.61 2 3 cbr 1000 ------- 2 1.0 3.0 74 208
r 1.61104 2 3 cbr 1000 ------- 2 1.0 3.0 63 197
- 1.61704 2 3 cbr 1000 ------- 2 1.0 3.0 66 200
+ 1.618 2 3 cbr 1000 ------- 2 1.0 3.0 75 209
r 1.61904 2 3 cbr 1000 ------- 2 1.0 3.0 64 198
- 1.62504 2 3 cbr 1000 ------- 2 1.0 3.0 67 201
+ 1.626 2 3 cbr 1000 ------- 2 1.0 3.0 76 211
r 1.62704 2 3 cbr 1000 ------- 2 1.0 3.0 65 199
- 1.63304 2 3 cbr 1000 ------- 2 1.0 3.0 68 202
+ 1.634 2 3 cbr 1000 ------- 2 1.0 3.0 77 212
r 1.63504 2 3 cbr 1000 ------- 2 1.0 3.0 66 200
- 1.64104 2 3 cbr 1000 ------- 2 1.0 3.0 69 203
+ 1.642 2 3 cbr 1000 ------- 2 1.0 3.0 78 213
r 1.64304 2 3 cbr 1000 ------- 2 1.0 3.0 67 201
- 1.64904 2 3 cbr 1000 ------- 2 1.0 3.0 70 204
+ 1.65 2 3 cbr 1000 ------- 2 1.0 3.0 79 214
+ 1.65032 2 3 tcp 1040 ------- 1 0.0 4.0 48 215
d 1.65032 2 3 tcp 1040 ------- 1 0.0 4.0 48 215
r 1.65104 2 3 cbr 1000 ------- 2 1.0 3.0 68 202
- 1.65704 2 3 cbr 1000 ------- 2 1.0 3.0 71 205
+ 1.658 2 3 cbr 1000 ------- 2 1.0 3.0 80 217
+ 1.65864 2 3 tcp 1040 ------- 1 0.0 4.0 49 216
d 1.65864 2 3 tcp 1040 ------- 1 0.0 4.0 49 216
r 1.65904 2 3 cbr 1000 ------- 2 1.0 3.0 69 203
- 1.66504 2 3 cbr 1000 ------- 2 1.0 3.0 72 206
+ 1.666 2 3 cbr 1000 ------- 2 1.0 3.0 81 218
r 1.66704 2 3 cbr 1000 ------- 2 1.0 3.0 70 204
- 1.67304 2 3 cbr 1000 ------- 2 1.0 3.0 73 207
+ 1.674 2 3 cbr 1000 ------- 2 1.0 3.0 82 219
r 1.67504 2 3 cbr 1000 ------- 2 1.0 3.0 71 205
- 1.68104 2 3 cbr 1000 ------- 2 1.0 3.0 74 208
+ 1.682 2 3 cbr 1000 ------- 2 1.0 3.0 83 220
r 1.68304 2 3 cbr 1000 ------- 2 1.0 3.0 72 206
- 1.68904 2 3 cbr 1000 ------- 2 1.0 3.0 75 209
+ 1.69 2 3 cbr 1000 ------- 2 1.0 3.0 84 221
r 1.69104 2 3 cbr 1000 ------- 2 1.0 3.0 73 207
- 1.69704 2 3 cbr 1000 ------- 2 1.0 3.0 76 211
+ 1.698 2 3 cbr 1000 ------- 2 1.0 3.0 85 222
r 1.69904 2 3 cbr 1000 ------- 2 1.0 3.0 74 208
- 1.70504 2 3 cbr 1000 ------- 2 1.0 3.0 77 212
+ 1.706 2 3 cbr 1000 ------- 2 1.0 3.0 86 223
r 1.70704 2 3 cbr 1000 ------- 2 1.0 3.0 75 209
- 1.71304 2 3 cbr 1000 ------- 2 1.0 3.0 78 213
+ 1.714 2 3 cbr 1000 ------- 2 1.0 3.0 87 224
r 1.71504 2 3 cbr 1000 ------- 2 1.0 3.0 76 211
- 1.72104 2 3 cbr 1000 ------- 2 1.0 3.0 79 214
+ 1.722 2 3 cbr 1000 ------- 2 1.0 3.0 88 225
r 1.72304 2 3 cbr 1000 ------- 2 1.0 3.0 77 212
- 1.72904 2 3 cbr 1000 ------- 2 1.0 3.0 80 217
+ 1.73 2 3 cbr 1000 ------- 2 1.0 3.0 89 226
r 1.73104 2 3 cbr 1000 ------- 2 1.0 3.0 78 213
- 1.73704 2 3 cbr 1000 ------- 2 1.0 3.0 81 218
+ 1.738 2 3 cbr 1000 ------- 2 1.0 3.0 90 227
r 1.73904 2 3 cbr 1000 ------- 2 1.0 3.0 79 214
- 1.74504 2 3 cbr 1000 ------- 2 1.0 3.0 82 219
+ 1.746 2 3 cbr 1000 ------- 2 1.0 3.0 91 228
r 1.74704 2 3 cbr 1000 ------- 2 1.0 3.0 80 217
- 1.75304 2 3 cbr 1000 ------- 2 1.0 3.0 83 220
+ 1.754 2 3 cbr 1000 ------- 2 1.0 3.0 92 229
r 1.75504 2 3 cbr 1000 ------- 2 1.0 3.0 81 218
- 1.76104 2 3 cbr 1000 ------- 2 1.0 3.0 84 221
+ 1.762 2 3 cbr 1000 ------- 2 1.0 3.0 93 230
r 1.76304 2 3 cbr 1000 ------- 2 1.0 3.0 82 219
- 1.76904 2 3 cbr 1000 ------- 2 1.0 3.0 85 222
+ 1.77 2 3 cbr 1000 ------- 2 1.0 3.0 94 231
r 1.77104 2 3 cbr 1000 ------- 2 1.0 3.0 83 220
- 1.77704 2 3 cbr 1000 ------- 2 1.0 3.0 86 223
+ 1.778 2 3 cbr 1000 ------- 2 1.0 3.0 95 232
r 1.77904 2 3 cbr 1000 ------- 2 1.0 3.0 84 221
- 1.78504 2 3 cbr 1000 ------- 2 1.0 3.0 87 224
+ 1.786 2 3 cbr 1000 ------- 2 1.0 3.0 96 233
r 1.78704 2 3 cbr 1000 ------- 2 1.0 3.0 85 222
- 1.79304 2 3 cbr 1000 ------- 2 1.0 3.0 88 225
+ 1.794 2 3 cbr 1000 ------- 2 1.0 3.0 97 234
r 1.79504 2 3 cbr 1000 ------- 2 1.0 3.0 86 223
- 1.80104 2 3 cbr 1000 ------- 2 1.0 3.0 89 226
+ 1.802 2 3 cbr 1000 ------- 2 1.0 3.0 98 235
r 1.80304 2 3 cbr 1000 ------- 2 1.0 3.0 87 224
- 1.80904 2 3 cbr 1000 ------- 2 1.0 3.0 90 227
+ 1.81 2 3 cbr 1000 ------- 2 1.0 3.0 99 236
r 1.81104 2 3 cbr 1000 ------- 2 1.0 3.0 88 225
- 1.81704 2 3 cbr 1000 ------- 2 1.0 3.0 91 228
+ 1.818 2 3 cbr 1000 ------- 2 1.0 3.0 100 237
r 1.81904 2 3 cbr 1000 ------- 2 1.0 3.0 89 226
- 1.82504 2 3 cbr 1000 ------- 2 1.0 3.0 92 229
+ 1.826 2 3 cbr 1000 ------- 2 1.0 3.0 101 238
r 1.82704 2 3 cbr 1000 ------- 2 1.0 3.0 90 227
- 1.83304 2 3 cbr 1000 ------- 2 1.0 3.0 93 230
+ 1.834 2 3 cbr 1000 ------- 2 1.0 3.0 102 239
r 1.83504 2 3 cbr 1000 ------- 2 1.0 3.0 91 228
- 1.84104 2 3 cbr 1000 ------- 2 1.0 3.0 94 231
+ 1.842 2 3 cbr 1000 ------- 2 1.0 3.0 103 240
r 1.84304 2 3 cbr 1000 ------- 2 1.0 3.0 92 229
- 1.84904 2 3 cbr 1000 ------- 2 1.0 3.0 95 232
+ 1.85 2 3 cbr 1000 ------- 2 1.0 3.0 104 241
r 1.85104 2 3 cbr 1000 ------- 2 1.0 3.0 93 230
- 1.85704 2 3 cbr 1000 ------- 2 1.0 3.0 96 233
+ 1.858 2 3 cbr 1000 ------- 2 1.0 3.0 105 242
r 1.85904 2 3 cbr 1000 ------- 2 1.0 3.0 94 231
- 1.86504 2 3 cbr 1000 ------- 2 1.0 3.0 97 234
+ 1.866 2 3 cbr 1000 ------- 2 1.0 3.0 106 243
r 1.86704 2 3 cbr 1000 ------- 2 1.0 3.0 95 232
- 1.87304 2 3 cbr 1000 ------- 2 1.0 3.0 98 235
+ 1.874 2 3 cbr 1000 ------- 2 1.0 3.0 107 244
r 1.87504 2 3 cbr 1000 ------- 2 1.0 3.0 96 233
- 1.88104 2 3 cbr 1000 ------- 2 1.0 3.0 99 236
+ 1.882 2 3 cbr 1000 ------- 2 1.0 3.0 108 245
r 1.88304 2 3 cbr 1000 ------- 2 1.0 3.0 97 234
- 1.88904 2 3 cbr 1000 ------- 2 1.0 3.0 100 237
+ 1.89 2 3 cbr 1000 ------- 2 1.0 3.0 109 246
r 1.89104 2 3 cbr 1000 ------- 2 1.0 3.0 98 235
- 1.89704 2 3 cbr 1000 ------- 2 1.0 3.0 101 238
+ 1.898 2 3 cbr 1000 ------- 2 1.0 3.0 110 247
r 1.89904 2 3 cbr 1000 ------- 2 1.0 3.0 99 236
- 1.90504 2 3 cbr 1000 ------- 2 1.0 3.0 102 239
+ 1.906 2 3 cbr 1000 ------- 2 1.0 3.0 111 248
r 1.90704 2 3 cbr 1000 ------- 2 1.0 3.0 100 237
- 1.91304 2 3 cbr 1000 ------- 2 1.0 3.0 103 240
+ 1.914 2 3 cbr 1000 ------- 2 1.0 3.0 112 249
r 1.91504 2 3 cbr 1000 ------- 2 1.0 3.0 101 238
- 1.92104 2 3 cbr 1000 ------- 2 1.0 3.0 104 241
+ 1.922 2 3 cbr 1000 ------- 2 1.0 3.0 113 250
r 1.92304 2 3 cbr 1000 ------- 2 1.0 3.0 102 239
- 1.92904 2 3 cbr 1000 ------- 2 1.0 3.0 105 242
+ 1.93 2 3 cbr 1000 ------- 2 1.0 3.0 114 251
r 1.93104 2 3 cbr 1000 ------- 2 1.0 3.0 103 240
- 1.93704 2 3 cbr 1000 ------- 2 1.0 3.0 106 243
+ 1.938 2 3 cbr 1000 ------- 2 1.0 3.0 115 252
r 1.93904 2 3 cbr 1000 ------- 2 1.0 3.0 104 241
- 1.94504 2 3 cbr 1000 ------- 2 1.0 3.0 107 244
+ 1.946 2 3 cbr 1000 ------- 2 1.0 3.0 116 253
r 1.94704 2 3 cbr 1000 ------- 2 1.0 3.0 105 242
- 1.95304 2 3 cbr 1000 ------- 2 1.0 3.0 108 245
+ 1.954 2 3 cbr 1000 ------- 2 1.0 3.0 117 254
r 1.95504 2 3 cbr 1000 ------- 2 1.0 3.0 106 243
- 1.96104 2 3 cbr 1000 ------- 2 1.0 3.0 109 246
+ 1.962 2 3 cbr 1000 ------- 2 1.0 3.0 118 255
r 1.96304 2 3 cbr 1000 ------- 2 1.0 3.0 107 244
- 1.96904 2 3 cbr 1000 ------- 2 1.0 3.0 110 247
+ 1.97 2 3 cbr 1000 ------- 2 1.0 3.0 119 256
r 1.97104 2 3 cbr 1000 ------- 2 1.0 3.0 108 245
- 1.97704 2 3 cbr 1000 ------- 2 1.0 3.0 111 248
+ 1.978 2 3 cbr 1000 ------- 2 1.0 3.0 120 257
r 1.97904 2 3 cbr 1000 ------- 2 1.0 3.0 109 246
- 1.98504 2 3 cbr 1000 ------- 2 1.0 3.0 112 249
+ 1.986 2 3 cbr 1000 ------- 2 1.0 3.0 121 258
r 1.98704 2 3 cbr 1000 ------- 2 1.0 3.0 110 247
- 1.99304 2 3 cbr 1000 ------- 2 1.0 3.0 113 250
+ 1.994 2 3 cbr 1000 ------- 2 1.0 3.0 122 259
r 1.99504 2 3 cbr 1000 ------- 2 1.0 3.0 111 248
- 2.00104 2 3 cbr 1000 ------- 2 1.0 3.0 114 251
+ 2.002 2 3 cbr 1000 ------- 2 1.0 3.0 123 260
r 2.00304 2 3 cbr 1000 ------- 2 1.0 3.0 112 249
- 2.00904 2 3 cbr 1000 ------- 2 1.0 3.0 115 252
+ 2.01 2 3 cbr 1000 ------- 2 1.0 3.0 124 261
r 2.01104 2 3 cbr 1000 ------- 2 1.0 3.0 113 250
- 2.01704 2 3 cbr 1000 ------- 2 1.0 3.0 116 253
+ 2.018 2 3 cbr 1000 ------- 2 1.0 3.0 125 262
r 2.01904 2 3 cbr 1000 ------- 2 1.0 3.0 114 251
- 2.02504 2 3 cbr 1000 ------- 2 1.0 3.0 117 254
+ 2.026 2 3 cbr 1000 ------- 2 1.0 3.0 126 263
r 2.02704 2 3 cbr 1000 ------- 2 1.0 3.0 115 252
- 2.03304 2 3 cbr 1000 ------- 2 1.0 3.0 118 255
+ 2.034 2 3 cbr 1000 ------- 2 1.0 3.0 127 264
r 2.03504 2 3 cbr 1000 ------- 2 1.0 3.0 116 253
- 2.04104 2 3 cbr 1000 ------- 2 1.0 3.0 119 256
+ 2.042 2 3 cbr 1000 ------- 2 1.0 3.0 128 265
r 2.04304 2 3 cbr 1000 ------- 2 1.0 3.0 117 254
- 2.04904 2 3 cbr 1000 ------- 2 1.0 3.0 120 257
+ 2.05 2 3 cbr 1000 ------- 2 1.0 3.0 129 266
r 2.05104 2 3 cbr 1000 ------- 2 1.0 3.0 118 255
- 2.05704 2 3 cbr 1000 ------- 2 1.0 3.0 121 258
+ 2.058 2 3 cbr 1000 ------- 2 1.0 3.0 130 267
r 2.05904 2 3 cbr 1000 ------- 2 1.0 3.0 119 256
- 2.06504 2 3 cbr 1000 ------- 2 1.0 3.0 122 259
+ 2.066 2 3 cbr 1000 ------- 2 1.0 3.0 131 268
r 2.06704 2 3 cbr 1000 ------- 2 1.0 3.0 120 257
- 2.07304 2 3 cbr 1000 ------- 2 1.0 3.0 123 260
+ 2.074 2 3 cbr 1000 ------- 2 1.0 3.0 132 269
r 2.07504 2 3 cbr 1000 ------- 2 1.0 3.0 121 258
- 2.08104 2 3 cbr 1000 ------- 2 1.0 3.0 124 261
+ 2.082 2 3 cbr 1000 ------- 2 1.0 3.0 133 270
r 2.08304 2 3 cbr 1000 ------- 2 1.0 3.0 122 259
- 2.08904 2 3 cbr 1000 ------- 2 1.0 3.0 125 262
+ 2.09 2 3 cbr 1000 ------- 2 1.0 3.0 134 271
+ 2.09032 2 3 tcp 1040 ---A--- 1 0.0 4.0 48 272
d 2.09032 2 3 tcp 1040 ---A--- 1 0.0 4.0 48 272
r 2.09104 2 3 cbr 1000 ------- 2 1.0 3.0 123 260
- 2.09704 2 3 cbr 1000 ------- 2 1.0 3.0 126 263
+ 2.098 2 3 cbr 1000 ------- 2 1.0 3.0 135 273
r 2.09904 2 3 cbr 1000 ------- 2 1.0 3.0 124 261
- 2.10504 2 3 cbr 1000 ------- 2 1.0 3.0 127 264
+ 2.106 2 3 cbr 1000 ------- 2 1.0 3.0 136 274
r 2.10704 2 3 cbr 1000 ------- 2 1.0 3.0 125 262
- 2.11304 2 3 cbr 1000 ------- 2 1.0 3.0 128 265
+ 2.114 2 3 cbr 1000 ------- 2 1.0 3.0 137 275
r 2.11504 2 3 cbr 1000 ------- 2 1.0 3.0 126 263
- 2.12104 2 3 cbr 1000 ------- 2 1.0 3.0 129 266
+ 2.122 2 3 cbr 1000 ------- 2 1.0 3.0 138 276
r 2.12304 2 3 cbr 1000 ------- 2 1.0 3.0 127 264
- 2.12904 2 3 cbr 1000 ------- 2 1.0 3.0 130 267
+ 2.13 2 3 cbr 1000 ------- 2 1.0 3.0 139 277
r 2.13104 2 3 cbr 1000 ------- 2 1.0 3.0 128 265
- 2.13704 2 3 cbr 1000 ------- 2 1.0 3.0 131 268
+ 2.138 2 3 cbr 1000 ------- 2 1.0 3.0 140 278
r 2.13904 2 3 cbr 1000 ------- 2 1.0 3.0 129 266
- 2.14504 2 3 cbr 1000 ------- 2 1.0 3.0 132 269
+ 2.146 2 3 cbr 1000 ------- 2 1.0 3.0 141 279
r 2.14704 2 3 cbr 1000 ------- 2 1.0 3.0 130 267
- 2.15304 2 3 cbr 1000 ------- 2 1.0 3.0 133 270
+ 2.154 2 3 cbr 1000 ------- 2 1.0 3.0 142 280
r 2.15504 2 3 cbr 1000 ------- 2 1.0 3.0 131 268
- 2.16104 2 3 cbr 1000 ------- 2 1.0 3.0 134 271
+ 2.162 2 3 cbr 1000 ------- 2 1.0 3.0 143 281
r 2.16304 2 3 cbr 1000 ------- 2 1.0 3.0 132 269
- 2.16904 2 3 cbr 1000 ------- 2 1.0 3.0 135 273
+ 2.17 2 3 cbr 1000 ------- 2 1.0 3.0 144 282
r 2.17104 2 3 cbr 1000 ------- 2 1.0 3.0 133 270
- 2.17704 2 3 cbr 1000 ------- 2 1.0 3.0 136 274
+ 2.178 2 3 cbr 1000 ------- 2 1.0 3.0 145 283
r 2.17904 2 3 cbr 1000 ------- 2 1.0 3.0 134 271
- 2.18504 2 3 cbr 1000 ------- 2 1.0 3.0 137 275
+ 2.186 2 3 cbr 1000 ------- 2 1.0 3.0 146 284
r 2.18704 2 3 cbr 1000 ------- 2 1.0 3.0 135 273
- 2.19304 2 3 cbr 1000 ------- 2 1.0 3.0 138 276
+ 2.194 2 3 cbr 1000 ------- 2 1.0 3.0 147 285
r 2.19504 2 3 cbr 1000 ------- 2 1.0 3.0 136 274
- 2.20104 2 3 cbr 1000 ------- 2 1.0 3.0 139 277
+ 2.202 2 3 cbr 1000 ------- 2 1.0 3.0 148 286
r 2.20304 2 3 cbr 1000 ------- 2 1.0 3.0 137 275
- 2.20904 2 3 cbr 1000 ------- 2 1.0 3.0 140 278
+ 2.21 2 3 cbr 1000 ------- 2 1.0 3.0 149 287
r 2.21104 2 3 cbr 1000 ------- 2 1.0 3.0 138 276
- 2.21704 2 3 cbr 1000 ------- 2 1.0 3.0 141 279
+ 2.218 2 3 cbr 1000 ------- 2 1.0 3.0 150 288
r 2.21904 2 3 cbr 1000 ------- 2 1.0 3.0 139 277
- 2.22504 2 3 cbr 1000 ------- 2 1.0 3.0 142 280
+ 2.226 2 3 cbr 1000 ------- 2 1.0 3.0 151 289
r 2.22704 2 3 cbr 1000 ------- 2 1.0 3.0 140 278
- 2.23304 2 3 cbr 1000 ------- 2 1.0 3.0 143 281
+ 2.234 2 3 cbr 1000 ------- 2 1.0 3.0 152 290
r 2.23504 2 3 cbr 1000 ------- 2 1.0 3.0 141 279
- 2.24104 2 3 cbr 1000 ------- 2 1.0 3.0 144 282
+ 2.242 2 3 cbr 1000 ------- 2 1.0 3.0 153 291
r 2.24304 2 3 cbr 1000 ------- 2 1.0 3.0 142 280
- 2.24904 2 3 cbr 1000 ------- 2 1.0 3.0 145 283
+ 2.25 2 3 cbr 1000 ------- 2 1.0 3.0 154 292
r 2.25104 2 3 cbr 1000 ------- 2 1.0 3.0 143 281
- 2.25704 2 3 cbr 1000 ------- 2 1.0 3.0 146 284